 Gaussian 16, Revision C.01,
 Gaussian 16:  ES64L-G16RevC.01  3-Jul-2019

 ---------------------------------------------------------------
 #n M062X/6-311++G(d,p) TD(NStates=1) EmpiricalDispersion=GD3 SP
 ---------------------------------------------------------------

 -----
 SP_-3
 -----
 Symbolic Z-matrix:
 Charge =  1 Multiplicity = 1

                         Standard orientation:
 ---------------------------------------------------------------------
 Center     Atomic      Atomic             Coordinates (Angstroms)
 Number     Number       Type             X           Y           Z
 ---------------------------------------------------------------------
      1          6           0        0.031067    2.881042    0.000000
      2          6           0       -1.120033    3.650666    0.000000
      3          6           0       -2.306692    2.981051    0.000000
      4          6           0       -2.337974    1.489670    0.000000
      5          6           0       -0.101413   -2.899937    0.000000
      6          6           0        1.016812   -3.595184    0.000000
      7          6           0        2.262354   -2.934651    0.000000
      8          6           0        2.337477   -1.538662    0.000000
      9          6           0        1.277769    0.692910    0.000000
     10          6           0       -1.226397   -0.739087    0.000000
     11          6           0        0.000000    1.392148    0.000000
     12          6           0       -1.204851    0.735670    0.000000
     13          6           0        1.226270   -0.815057    0.000000
     14          6           0       -0.065160   -1.461255    0.000000
     15          1           0        1.008775    3.348863    0.000000
     16          1           0       -1.076907    4.728103    0.000000
     17          1           0       -3.256104    3.502359    0.000000
     18          1           0       -3.314978    1.022002    0.000000
     19          1           0       -2.190373   -1.228600    0.000000
     20          1           0       -1.074352   -3.375396    0.000000
     21          1           0        0.998127   -4.675834    0.000000
     22          1           0        3.176165   -3.512713    0.000000
     23          1           0        3.310944   -1.062714    0.000000
     24          1           0        1.841664    1.108998    0.859585
     25          1           0        1.841664    1.108998   -0.859585
 ---------------------------------------------------------------------

 SCF Done:  E(RM062X) =  -539.728570399     A.U. after   16 cycles

 Excitation energies and oscillator strengths:

 Excited State   1:      Singlet-A'     2.3457 eV  528.57 nm  f=0.0137  <S**2>=0.000
      47 -> 48         0.70322
 This state for optimization and/or second-order correction.
 Total Energy, E(TD-HF/TD-DFT) =  -539.642368474
 Copying the excited state density for this state as the 1-particle RhoCI density.

 The electronic state is 1-A'.
 Alpha  occ. eigenvalues --  -10.77248 -10.74251 -10.73366 -10.73154 -10.72148
 Alpha  occ. eigenvalues --  -10.72104 -10.71314 -10.71032 -10.70437 -10.70244
 Alpha  occ. eigenvalues --  -10.70113 -10.69512 -10.69078 -10.68956  -1.16898
 Alpha  occ. eigenvalues --   -1.12523  -1.06906  -1.06317  -1.01263  -1.00985
 Alpha  occ. eigenvalues --   -0.95106  -0.90920  -0.86505  -0.85805  -0.83746
 Alpha  occ. eigenvalues --   -0.78067  -0.76508  -0.74240  -0.70328  -0.69389
 Alpha  occ. eigenvalues --   -0.68036  -0.67911  -0.67810  -0.66115  -0.64218
 Alpha  occ. eigenvalues --   -0.62241  -0.61133  -0.61103  -0.59362  -0.58704
 Alpha  occ. eigenvalues --   -0.56736  -0.55573  -0.53526  -0.52435  -0.48797
 Alpha  occ. eigenvalues --   -0.46210  -0.42401
 Alpha virt. eigenvalues --   -0.26189  -0.14753  -0.13906  -0.12662  -0.11233
 Alpha virt. eigenvalues --   -0.10117  -0.09350  -0.07897  -0.07765  -0.07515
 Alpha virt. eigenvalues --   -0.07237  -0.07071  -0.05660  -0.05548  -0.05403

 Mulliken charges:
               1
     1  C    0.139191
     2  C   -0.412963
     3  C   -0.454715
     4  C   -0.040108
     5  C    0.053445
     6  C   -0.424383
     7  C   -0.398356
     8  C    0.050965
     9  C   -0.357784
    10  C    0.067554
    11  C   -0.564919
    12  C    0.649358
    13  C   -0.649262
    14  C    0.720761
    15  H    0.233890
    16  H    0.246577
    17  H    0.242426
    18  H    0.216406
    19  H    0.187019
    20  H    0.228586
    21  H    0.254763
    22  H    0.266730
    23  H    0.241503
    24  H    0.251658
    25  H    0.251658
 Sum of Mulliken charges =   1.00000

 Dipole moment (field-independent basis, Debye):
    X=              0.9496    Y=             -2.0328    Z=              0.0000  Tot=              2.2437
 Quadrupole moment (field-independent basis, Debye-Ang):
   XX=            -51.4004   YY=            -35.5192   ZZ=            -84.0811
   XY=            -10.1739   XZ=              0.0000   YZ=              0.0000

 Normal termination of Gaussian 16 at Wed Jul 27 11:24:21 2022.
