 Gaussian 16, Revision C.01,
 Gaussian 16:  ES64L-G16RevC.01  3-Jul-2019

 ---------------------------------------------------------------
 #n M062X/6-311++G(d,p) TD(NStates=1) EmpiricalDispersion=GD3 SP
 ---------------------------------------------------------------

 -----
 SP_-6
 -----
 Symbolic Z-matrix:
 Charge =  1 Multiplicity = 1

                         Standard orientation:
 ---------------------------------------------------------------------
 Center     Atomic      Atomic             Coordinates (Angstroms)
 Number     Number       Type             X           Y           Z
 ---------------------------------------------------------------------
      1          6           0        2.499789    1.555692    0.000000
      2          6           0        2.538476    2.935725    0.000000
      3          6           0        1.339910    3.537363    0.000000
      4          6           0        0.009346    2.688495    0.000000
      5          6           0       -2.560835   -1.458952    0.000000
      6          6           0       -2.572080   -2.685355    0.000000
      7          6           0       -1.331367   -3.404156    0.000000
      8          6           0       -0.068889   -2.777480    0.000000
      9          6           0        1.300167   -0.716914    0.000000
     10          6           0       -1.292658    0.562023    0.000000
     11          6           0        1.166771    0.717701    0.000000
     12          6           0        0.000000    1.369152    0.000000
     13          6           0       -0.012921   -1.531211    0.000000
     14          6           0       -1.268292   -0.746831    0.000000
     15          1           0        3.411913    0.970137    0.000000
     16          1           0        3.464098    3.485868    0.000000
     17          1           0        1.214035    4.620334    0.000000
     18          1           0       -0.901258    3.275253    0.000000
     19          1           0       -2.208659    1.132922    0.000000
     20          1           0       -3.445324   -0.828140    0.000000
     21          1           0       -3.487020   -3.262937    0.000000
     22          1           0       -1.359441   -4.486361    0.000000
     23          1           0        0.815274   -3.410203    0.000000
     24          1           0        2.005941   -0.884192    0.859585
     25          1           0        2.005941   -0.884192   -0.859585
 ---------------------------------------------------------------------

 SCF Done:  E(RM062X) =  -539.628892135     A.U. after   16 cycles

 Excitation energies and oscillator strengths:

 Excited State   1:      Singlet-A'     1.7760 eV  698.11 nm  f=0.0156  <S**2>=0.000
      47 -> 48         0.70306
 This state for optimization and/or second-order correction.
 Total Energy, E(TD-HF/TD-DFT) =  -539.563625324
 Copying the excited state density for this state as the 1-particle RhoCI density.

 The electronic state is 1-A'.
 Alpha  occ. eigenvalues --  -10.75882 -10.75807 -10.75071 -10.73155 -10.72337
 Alpha  occ. eigenvalues --  -10.71392 -10.71181 -10.70918 -10.70331 -10.69830
 Alpha  occ. eigenvalues --  -10.69251 -10.69002 -10.68581 -10.67489  -1.18121
 Alpha  occ. eigenvalues --   -1.12616  -1.08314  -1.06706  -1.01948  -1.01029
 Alpha  occ. eigenvalues --   -0.94780  -0.90189  -0.86548  -0.85469  -0.83651
 Alpha  occ. eigenvalues --   -0.77481  -0.77085  -0.74339  -0.71332  -0.69406
 Alpha  occ. eigenvalues --   -0.68639  -0.67835  -0.67012  -0.66036  -0.63950
 Alpha  occ. eigenvalues --   -0.62301  -0.62049  -0.61344  -0.57920  -0.57850
 Alpha  occ. eigenvalues --   -0.56151  -0.55513  -0.52417  -0.51805  -0.51500
 Alpha  occ. eigenvalues --   -0.46446  -0.39887
 Alpha virt. eigenvalues --   -0.26445  -0.14896  -0.13402  -0.12172  -0.11379
 Alpha virt. eigenvalues --   -0.10207  -0.09585  -0.07774  -0.07602  -0.07563
 Alpha virt. eigenvalues --   -0.07296  -0.06636  -0.05716  -0.05512  -0.05475

 Mulliken charges:
               1
     1  C    0.144298
     2  C   -0.402194
     3  C   -0.480606
     4  C   -0.089404
     5  C    0.057479
     6  C   -0.401712
     7  C   -0.377985
     8  C    0.000886
     9  C   -0.425741
    10  C   -0.041482
    11  C   -0.328215
    12  C    0.647522
    13  C   -0.620499
    14  C    0.697229
    15  H    0.232738
    16  H    0.238148
    17  H    0.239133
    18  H    0.213905
    19  H    0.168076
    20  H    0.236048
    21  H    0.259660
    22  H    0.275036
    23  H    0.245559
    24  H    0.256060
    25  H    0.256060
 Sum of Mulliken charges =   1.00000

 Dipole moment (field-independent basis, Debye):
    X=             -2.0356    Y=             -3.6749    Z=              0.0000  Tot=              4.2010
 Quadrupole moment (field-independent basis, Debye-Ang):
   XX=            -48.1837   YY=            -37.3061   ZZ=            -83.9111
   XY=             12.8402   XZ=              0.0000   YZ=              0.0000

 Normal termination of Gaussian 16 at Tue Aug  2 12:14:10 2022.
