 Gaussian 16, Revision C.01,
 Gaussian 16:  ES64L-G16RevC.01  3-Jul-2019

 ---------------------------------------------------------------
 #n M062X/6-311++G(d,p) TD(NStates=1) EmpiricalDispersion=GD3 SP
 ---------------------------------------------------------------

 ----
 SP_2
 ----
 Symbolic Z-matrix:
 Charge =  1 Multiplicity = 1

                         Standard orientation:
 ---------------------------------------------------------------------
 Center     Atomic      Atomic             Coordinates (Angstroms)
 Number     Number       Type             X           Y           Z
 ---------------------------------------------------------------------
      1          6           0       -2.286133   -1.564322    0.000000
      2          6           0       -2.248422   -2.954937    0.000000
      3          6           0       -1.008419   -3.610266    0.000000
      4          6           0        0.152582   -2.914677    0.000000
      5          6           0        2.328918    1.611713    0.000000
      6          6           0        2.186499    3.073366    0.000000
      7          6           0        0.952106    3.667291    0.000000
      8          6           0       -0.142954    2.821334    0.000000
      9          6           0       -1.243974    0.625080    0.000000
     10          6           0        1.313395   -0.707016    0.000000
     11          6           0       -1.137226   -0.856261    0.000000
     12          6           0        0.151262   -1.480816    0.000000
     13          6           0        0.000000    1.370666    0.000000
     14          6           0        1.241336    0.758948    0.000000
     15          1           0       -3.238905   -1.046873    0.000000
     16          1           0       -3.169308   -3.523603    0.000000
     17          1           0       -0.986225   -4.691168    0.000000
     18          1           0        1.106569   -3.428056    0.000000
     19          1           0        2.291804   -1.176240    0.000000
     20          1           0        3.339450    1.214045    0.000000
     21          1           0        3.089179    3.666685    0.000000
     22          1           0        0.838506    4.741489    0.000000
     23          1           0       -1.155951    3.215542    0.000000
     24          1           0       -1.834471    0.993781    0.859585
     25          1           0       -1.834471    0.993781   -0.859585
 ---------------------------------------------------------------------

 SCF Done:  E(RM062X) =  -539.739873459     A.U. after   16 cycles

 Excitation energies and oscillator strengths:

 Excited State   1:      Singlet-A'     2.4474 eV  506.59 nm  f=0.0163  <S**2>=0.000
      47 -> 48         0.70334
 This state for optimization and/or second-order correction.
 Total Energy, E(TD-HF/TD-DFT) =  -539.649932785
 Copying the excited state density for this state as the 1-particle RhoCI density.

 The electronic state is 1-A'.
 Alpha  occ. eigenvalues --  -10.78011 -10.73697 -10.73340 -10.72490 -10.72289
 Alpha  occ. eigenvalues --  -10.72085 -10.72078 -10.70797 -10.70665 -10.70122
 Alpha  occ. eigenvalues --  -10.70035 -10.69604 -10.69511 -10.69273  -1.16643
 Alpha  occ. eigenvalues --   -1.12446  -1.06873  -1.06107  -1.01265  -1.00574
 Alpha  occ. eigenvalues --   -0.95408  -0.90929  -0.86455  -0.85845  -0.83692
 Alpha  occ. eigenvalues --   -0.78214  -0.76300  -0.74245  -0.69901  -0.69304
 Alpha  occ. eigenvalues --   -0.68334  -0.68309  -0.67951  -0.65630  -0.64350
 Alpha  occ. eigenvalues --   -0.62409  -0.61229  -0.60551  -0.59248  -0.58940
 Alpha  occ. eigenvalues --   -0.56883  -0.55422  -0.54071  -0.52449  -0.47691
 Alpha  occ. eigenvalues --   -0.46224  -0.43086
 Alpha virt. eigenvalues --   -0.26314  -0.14753  -0.14112  -0.12709  -0.11235
 Alpha virt. eigenvalues --   -0.10103  -0.09282  -0.07958  -0.07885  -0.07493
 Alpha virt. eigenvalues --   -0.07288  -0.07221  -0.05648  -0.05569  -0.05393

 Mulliken charges:
               1
     1  C   -0.082975
     2  C   -0.373606
     3  C   -0.442037
     4  C    0.197348
     5  C    0.179024
     6  C   -0.434766
     7  C   -0.400436
     8  C    0.007213
     9  C   -0.291873
    10  C    0.013068
    11  C   -0.394160
    12  C    0.455045
    13  C   -0.281282
    14  C    0.210049
    15  H    0.237043
    16  H    0.266012
    17  H    0.250538
    18  H    0.231341
    19  H    0.205958
    20  H    0.223871
    21  H    0.241739
    22  H    0.253357
    23  H    0.230032
    24  H    0.249748
    25  H    0.249748
 Sum of Mulliken charges =   1.00000

 Dipole moment (field-independent basis, Debye):
    X=             -0.5635    Y=             -1.3916    Z=              0.0000  Tot=              1.5013
 Quadrupole moment (field-independent basis, Debye-Ang):
   XX=            -51.7131   YY=            -35.7143   ZZ=            -84.1586
   XY=              9.5468   XZ=             -0.0000   YZ=              0.0000

 Normal termination of Gaussian 16 at Tue Aug  2 12:45:46 2022.
