 Gaussian 16, Revision C.01,
 Gaussian 16:  ES64L-G16RevC.01  3-Jul-2019

 ---------------------------------------------------------------
 #n M062X/6-311++G(d,p) TD(NStates=1) EmpiricalDispersion=GD3 SP
 ---------------------------------------------------------------

 -----
 SP_-8
 -----
 Symbolic Z-matrix:
 Charge =  1 Multiplicity = 1

                         Standard orientation:
 ---------------------------------------------------------------------
 Center     Atomic      Atomic             Coordinates (Angstroms)
 Number     Number       Type             X           Y           Z
 ---------------------------------------------------------------------
      1          6           0        0.179875    2.902259    0.000000
      2          6           0       -0.853274    3.808260    0.000000
      3          6           0       -2.037162    3.218601    0.000000
      4          6           0       -2.190467    1.583080    0.000000
      5          6           0       -0.224329   -3.040155    0.000000
      6          6           0        0.801663   -3.628366    0.000000
      7          6           0        2.080172   -2.937668    0.000000
      8          6           0        2.204020   -1.539591    0.000000
      9          6           0        1.241179    0.633437    0.000000
     10          6           0       -1.259121   -0.831232    0.000000
     11          6           0        0.000000    1.292109    0.000000
     12          6           0       -1.191862    0.743942    0.000000
     13          6           0        1.196881   -0.909936    0.000000
     14          6           0       -0.173496   -1.529377    0.000000
     15          1           0        1.230501    3.208952    0.000000
     16          1           0       -0.716210    4.876516    0.000000
     17          1           0       -2.980048    3.757532    0.000000
     18          1           0       -3.238723    1.272862    0.000000
     19          1           0       -2.259779   -1.252064    0.000000
     20          1           0       -1.219180   -3.467566    0.000000
     21          1           0        0.846674   -4.717122    0.000000
     22          1           0        2.990849   -3.528470    0.000000
     23          1           0        3.197766   -1.108079    0.000000
     24          1           0        1.751834    1.182635    0.859585
     25          1           0        1.751834    1.182635   -0.859585
 ---------------------------------------------------------------------

 SCF Done:  E(RM062X) =  -539.516832281     A.U. after   16 cycles

 Excitation energies and oscillator strengths:

 Excited State   1:      Singlet-A'     1.3680 eV  906.34 nm  f=0.0360  <S**2>=0.000
      47 -> 48         0.70312
 This state for optimization and/or second-order correction.
 Total Energy, E(TD-HF/TD-DFT) =  -539.466560712
 Copying the excited state density for this state as the 1-particle RhoCI density.

 The electronic state is 1-A'.
 Alpha  occ. eigenvalues --  -10.77018 -10.75469 -10.74728 -10.73500 -10.72168
 Alpha  occ. eigenvalues --  -10.71107 -10.70636 -10.70544 -10.70326 -10.69531
 Alpha  occ. eigenvalues --  -10.69160 -10.68665 -10.68446 -10.66867  -1.19004
 Alpha  occ. eigenvalues --   -1.12818  -1.09783  -1.06623  -1.02503  -1.01273
 Alpha  occ. eigenvalues --   -0.95250  -0.89106  -0.86529  -0.85119  -0.83522
 Alpha  occ. eigenvalues --   -0.77747  -0.76844  -0.74383  -0.71917  -0.69556
 Alpha  occ. eigenvalues --   -0.68979  -0.68211  -0.66823  -0.65685  -0.63958
 Alpha  occ. eigenvalues --   -0.62830  -0.62794  -0.60745  -0.57592  -0.56616
 Alpha  occ. eigenvalues --   -0.55480  -0.54732  -0.53230  -0.52428  -0.50383
 Alpha  occ. eigenvalues --   -0.46995  -0.38181
 Alpha virt. eigenvalues --   -0.26838  -0.15139  -0.13351  -0.11512  -0.11359
 Alpha virt. eigenvalues --   -0.10261  -0.09700  -0.07804  -0.07650  -0.07567
 Alpha virt. eigenvalues --   -0.07334  -0.06396  -0.05717  -0.05572  -0.05458

 Mulliken charges:
               1
     1  C    0.161219
     2  C   -0.371348
     3  C   -0.326456
     4  C   -0.052670
     5  C    0.085654
     6  C   -0.395467
     7  C   -0.352671
     8  C   -0.036396
     9  C   -0.522221
    10  C   -0.211426
    11  C    0.201262
    12  C    0.561838
    13  C   -0.863564
    14  C    0.470094
    15  H    0.231760
    16  H    0.240964
    17  H    0.234285
    18  H    0.216031
    19  H    0.194063
    20  H    0.236015
    21  H    0.258753
    22  H    0.282265
    23  H    0.243513
    24  H    0.257251
    25  H    0.257251
 Sum of Mulliken charges =   1.00000

 Dipole moment (field-independent basis, Debye):
    X=              2.4589    Y=             -4.2841    Z=              0.0000  Tot=              4.9397
 Quadrupole moment (field-independent basis, Debye-Ang):
   XX=            -53.0380   YY=            -32.0173   ZZ=            -83.7646
   XY=             -9.5202   XZ=              0.0000   YZ=              0.0000

 Normal termination of Gaussian 16 at Tue Aug  2 12:09:36 2022.
