 Gaussian 16, Revision C.01,
 Gaussian 16:  ES64L-G16RevC.01  3-Jul-2019

 ---------------------------------------------------------------
 #n M062X/6-311++G(d,p) TD(NStates=1) EmpiricalDispersion=GD3 SP
 ---------------------------------------------------------------

 ----
 SP_2
 ----
 Symbolic Z-matrix:
 Charge =  1 Multiplicity = 1

                         Standard orientation:
 ---------------------------------------------------------------------
 Center     Atomic      Atomic             Coordinates (Angstroms)
 Number     Number       Type             X           Y           Z
 ---------------------------------------------------------------------
      1          6           0        2.595874   -1.237931    0.000000
      2          6           0        3.722853   -0.393370    0.000000
      3          6           0        3.595934    1.004234    0.000000
      4          6           0        2.366668    1.538669    0.000000
      5          6           0       -2.409664    1.297453    0.000000
      6          6           0       -3.701990    0.620552    0.000000
      7          6           0       -3.743604   -0.752403    0.000000
      8          6           0       -2.540512   -1.462885    0.000000
      9          6           0        0.052195   -1.544459    0.000000
     10          6           0        0.000000    1.338576    0.000000
     11          6           0        1.331463   -0.721393    0.000000
     12          6           0        1.214280    0.706716    0.000000
     13          6           0       -1.228121   -0.789451    0.000000
     14          6           0       -1.234139    0.595481    0.000000
     15          1           0        2.756577   -2.315147    0.000000
     16          1           0        4.708513   -0.838369    0.000000
     17          1           0        4.480887    1.628071    0.000000
     18          1           0        2.211800    2.615445    0.000000
     19          1           0       -0.055032    2.412274    0.000000
     20          1           0       -2.393484    2.381720    0.000000
     21          1           0       -4.608574    1.221980    0.000000
     22          1           0       -4.686761   -1.277873    0.000000
     23          1           0       -2.562466   -2.548101    0.000000
     24          1           0        0.010560   -2.239364    0.859585
     25          1           0        0.010560   -2.239364   -0.859585
 ---------------------------------------------------------------------

 SCF Done:  E(RM062X) =  -539.745788909     A.U. after   15 cycles

 Excitation energies and oscillator strengths:

 Excited State   1:      Singlet-A'     2.6791 eV  462.79 nm  f=0.0168  <S**2>=0.000
      47 -> 48         0.70326
 This state for optimization and/or second-order correction.
 Total Energy, E(TD-HF/TD-DFT) =  -539.647335243
 Copying the excited state density for this state as the 1-particle RhoCI density.

 The electronic state is 1-A'.
 Alpha  occ. eigenvalues --  -10.76655 -10.74426 -10.72890 -10.72759 -10.72502
 Alpha  occ. eigenvalues --  -10.71937 -10.71567 -10.71282 -10.70785 -10.70617
 Alpha  occ. eigenvalues --  -10.70084 -10.70021 -10.69788 -10.69344  -1.16626
 Alpha  occ. eigenvalues --   -1.12381  -1.06853  -1.05758  -1.01149  -1.00590
 Alpha  occ. eigenvalues --   -0.95266  -0.90979  -0.86454  -0.85849  -0.83733
 Alpha  occ. eigenvalues --   -0.78122  -0.76035  -0.74203  -0.70141  -0.69240
 Alpha  occ. eigenvalues --   -0.68020  -0.67850  -0.67712  -0.65301  -0.63918
 Alpha  occ. eigenvalues --   -0.62502  -0.61656  -0.60806  -0.59306  -0.59080
 Alpha  occ. eigenvalues --   -0.56771  -0.55546  -0.54029  -0.52341  -0.47942
 Alpha  occ. eigenvalues --   -0.45995  -0.43482
 Alpha virt. eigenvalues --   -0.25838  -0.14786  -0.13947  -0.12869  -0.11186
 Alpha virt. eigenvalues --   -0.10107  -0.09298  -0.07935  -0.07856  -0.07495
 Alpha virt. eigenvalues --   -0.07157  -0.06983  -0.05690  -0.05579  -0.05338

 Mulliken charges:
               1
     1  C    0.004406
     2  C   -0.366727
     3  C   -0.448559
     4  C    0.087739
     5  C   -0.005663
     6  C   -0.484963
     7  C   -0.376499
     8  C    0.043127
     9  C   -0.429054
    10  C   -0.034563
    11  C   -0.505577
    12  C    0.701108
    13  C   -0.464254
    14  C    0.671675
    15  H    0.245790
    16  H    0.259370
    17  H    0.255691
    18  H    0.235282
    19  H    0.149123
    20  H    0.224356
    21  H    0.248956
    22  H    0.245880
    23  H    0.239920
    24  H    0.251719
    25  H    0.251719
 Sum of Mulliken charges =   1.00000

 Dipole moment (field-independent basis, Debye):
    X=              1.5161    Y=              0.2689    Z=              0.0000  Tot=              1.5398
 Quadrupole moment (field-independent basis, Debye-Ang):
   XX=            -30.3398   YY=            -56.3005   ZZ=            -84.2177
   XY=              1.6677   XZ=             -0.0000   YZ=             -0.0000

 Normal termination of Gaussian 16 at Tue Aug  2 12:40:06 2022.
