 Gaussian 16, Revision C.01,
 Gaussian 16:  ES64L-G16RevC.01  3-Jul-2019

 ---------------------------------------------------------------
 #n M062X/6-311++G(d,p) TD(NStates=1) EmpiricalDispersion=GD3 SP
 ---------------------------------------------------------------

 -----
 SP_12
 -----
 Symbolic Z-matrix:
 Charge =  1 Multiplicity = 1

                         Standard orientation:
 ---------------------------------------------------------------------
 Center     Atomic      Atomic             Coordinates (Angstroms)
 Number     Number       Type             X           Y           Z
 ---------------------------------------------------------------------
      1          6           0        0.013688   -2.738143    0.000000
      2          6           0        1.340798   -3.294507    0.000000
      3          6           0        2.638346   -2.578442    0.000000
      4          6           0        2.623711   -1.532383    0.000000
      5          6           0        0.078003    2.520608    0.000000
      6          6           0       -1.330283    3.569748    0.000000
      7          6           0       -2.544504    3.094323    0.000000
      8          6           0       -2.544064    1.721786    0.000000
      9          6           0       -1.386532   -0.688435    0.000000
     10          6           0        1.334885    0.360453    0.000000
     11          6           0       -0.078905   -1.649303    0.000000
     12          6           0        1.240139   -0.829913    0.000000
     13          6           0       -1.123523    0.702852    0.000000
     14          6           0        0.000000    1.284265    0.000000
     15          1           0       -0.814821   -3.470839    0.000000
     16          1           0        1.389259   -4.379429    0.000000
     17          1           0        3.517166   -3.217308    0.000000
     18          1           0        3.454508   -0.805073    0.000000
     19          1           0        2.243602    0.936932    0.000000
     20          1           0        0.993976    3.099398    0.000000
     21          1           0       -1.050901    4.651505    0.000000
     22          1           0       -3.435624    3.695983    0.000000
     23          1           0       -3.463531    1.147692    0.000000
     24          1           0       -2.202099   -0.658160    0.859585
     25          1           0       -2.202099   -0.658160   -0.859585
 ---------------------------------------------------------------------

 SCF Done:  E(RM062X) =  -539.141098771     A.U. after   18 cycles

 Excitation energies and oscillator strengths:

 Excited State   1:      Singlet-A'     0.9515 eV 1303.01 nm  f=0.0621  <S**2>=0.000
      47 -> 48         0.71300
      47 <- 48        -0.12457
 This state for optimization and/or second-order correction.
 Total Energy, E(TD-HF/TD-DFT) =  -539.106131124
 Copying the excited state density for this state as the 1-particle RhoCI density.

 The electronic state is 1-A'.
 Alpha  occ. eigenvalues --  -10.79521 -10.75061 -10.72683 -10.71550 -10.71255
 Alpha  occ. eigenvalues --  -10.70968 -10.70748 -10.70686 -10.69798 -10.69308
 Alpha  occ. eigenvalues --  -10.68750 -10.67603 -10.67114 -10.66394  -1.21002
 Alpha  occ. eigenvalues --   -1.13716  -1.12516  -1.06913  -1.02860  -1.01088
 Alpha  occ. eigenvalues --   -0.96145  -0.88022  -0.86041  -0.84200  -0.83688
 Alpha  occ. eigenvalues --   -0.77408  -0.76539  -0.74519  -0.73670  -0.69864
 Alpha  occ. eigenvalues --   -0.69019  -0.68476  -0.66501  -0.64685  -0.63555
 Alpha  occ. eigenvalues --   -0.62944  -0.62712  -0.59064  -0.58940  -0.56564
 Alpha  occ. eigenvalues --   -0.55638  -0.54802  -0.52439  -0.52182  -0.47839
 Alpha  occ. eigenvalues --   -0.47198  -0.36060
 Alpha virt. eigenvalues --   -0.27503  -0.15860  -0.11624  -0.11327  -0.10457
 Alpha virt. eigenvalues --   -0.09938  -0.09412  -0.07845  -0.07816  -0.07498
 Alpha virt. eigenvalues --   -0.07362  -0.06062  -0.06019  -0.05419  -0.05186

 Mulliken charges:
               1
     1  C   -0.061805
     2  C   -0.331911
     3  C   -0.361560
     4  C    0.084035
     5  C   -0.209343
     6  C   -0.454084
     7  C   -0.418133
     8  C    0.128136
     9  C   -0.430605
    10  C   -0.096556
    11  C   -0.553823
    12  C    0.572128
    13  C   -0.025336
    14  C    0.550599
    15  H    0.246750
    16  H    0.280064
    17  H    0.261644
    18  H    0.251110
    19  H    0.109547
    20  H    0.210358
    21  H    0.244505
    22  H    0.234453
    23  H    0.226343
    24  H    0.271742
    25  H    0.271742
 Sum of Mulliken charges =   1.00000

 Dipole moment (field-independent basis, Debye):
    X=              2.2020    Y=             -5.4726    Z=             -0.0000  Tot=              5.8990
 Quadrupole moment (field-independent basis, Debye-Ang):
   XX=            -46.7129   YY=            -34.9462   ZZ=            -83.2455
   XY=            -15.5162   XZ=              0.0000   YZ=              0.0000

 Normal termination of Gaussian 16 at Tue Aug  2 13:20:39 2022.
