 Gaussian 16, Revision C.01,
 Gaussian 16:  ES64L-G16RevC.01  3-Jul-2019

 ---------------------------------------------------------------
 #n M062X/6-311++G(d,p) TD(NStates=1) EmpiricalDispersion=GD3 SP
 ---------------------------------------------------------------

 ----
 SP_4
 ----
 Symbolic Z-matrix:
 Charge =  1 Multiplicity = 1

                         Standard orientation:
 ---------------------------------------------------------------------
 Center     Atomic      Atomic             Coordinates (Angstroms)
 Number     Number       Type             X           Y           Z
 ---------------------------------------------------------------------
      1          6           0       -2.225791   -1.566892    0.000000
      2          6           0       -2.170518   -2.959402    0.000000
      3          6           0       -0.916775   -3.626825    0.000000
      4          6           0        0.209357   -2.973960    0.000000
      5          6           0        2.263745    1.661949    0.000000
      6          6           0        2.061658    3.178789    0.000000
      7          6           0        0.825801    3.731634    0.000000
      8          6           0       -0.213638    2.823265    0.000000
      9          6           0       -1.224809    0.595321    0.000000
     10          6           0        1.333958   -0.740251    0.000000
     11          6           0       -1.116680   -0.897540    0.000000
     12          6           0        0.204543   -1.509058    0.000000
     13          6           0        0.000000    1.327648    0.000000
     14          6           0        1.238466    0.765976    0.000000
     15          1           0       -3.186929   -1.064126    0.000000
     16          1           0       -3.091041   -3.533294    0.000000
     17          1           0       -0.920447   -4.711314    0.000000
     18          1           0        1.172442   -3.470808    0.000000
     19          1           0        2.328848   -1.178642    0.000000
     20          1           0        3.305489    1.336721    0.000000
     21          1           0        2.955945    3.784677    0.000000
     22          1           0        0.666900    4.800261    0.000000
     23          1           0       -1.258593    3.143155    0.000000
     24          1           0       -1.794264    1.014725    0.859585
     25          1           0       -1.794264    1.014725   -0.859585
 ---------------------------------------------------------------------

 SCF Done:  E(RM062X) =  -539.693475223     A.U. after   16 cycles

 Excitation energies and oscillator strengths:

 Excited State   1:      Singlet-A'     2.0105 eV  616.68 nm  f=0.0148  <S**2>=0.000
      47 -> 48         0.70289
 This state for optimization and/or second-order correction.
 Total Energy, E(TD-HF/TD-DFT) =  -539.619590650
 Copying the excited state density for this state as the 1-particle RhoCI density.

 The electronic state is 1-A'.
 Alpha  occ. eigenvalues --  -10.77724 -10.74140 -10.74056 -10.73860 -10.72528
 Alpha  occ. eigenvalues --  -10.71554 -10.71438 -10.70590 -10.70365 -10.70325
 Alpha  occ. eigenvalues --  -10.70146 -10.69300 -10.68947 -10.68427  -1.17170
 Alpha  occ. eigenvalues --   -1.12508  -1.07028  -1.06568  -1.01436  -1.01142
 Alpha  occ. eigenvalues --   -0.94933  -0.90498  -0.86572  -0.85682  -0.83528
 Alpha  occ. eigenvalues --   -0.77798  -0.76763  -0.74039  -0.70524  -0.69414
 Alpha  occ. eigenvalues --   -0.68394  -0.67845  -0.67625  -0.66613  -0.64286
 Alpha  occ. eigenvalues --   -0.61889  -0.61293  -0.61092  -0.58538  -0.58215
 Alpha  occ. eigenvalues --   -0.56668  -0.55421  -0.52965  -0.52434  -0.49455
 Alpha  occ. eigenvalues --   -0.46398  -0.41243
 Alpha virt. eigenvalues --   -0.26494  -0.14872  -0.14060  -0.12511  -0.11326
 Alpha virt. eigenvalues --   -0.10143  -0.09416  -0.07891  -0.07672  -0.07539
 Alpha virt. eigenvalues --   -0.07349  -0.07163  -0.05664  -0.05543  -0.05484

 Mulliken charges:
               1
     1  C   -0.138490
     2  C   -0.356569
     3  C   -0.402684
     4  C    0.154416
     5  C    0.161517
     6  C   -0.396993
     7  C   -0.399877
     8  C    0.039941
     9  C   -0.375269
    10  C   -0.021049
    11  C   -0.448183
    12  C    0.525182
    13  C   -0.108502
    14  C    0.111415
    15  H    0.240844
    16  H    0.273335
    17  H    0.253340
    18  H    0.235595
    19  H    0.210273
    20  H    0.223777
    21  H    0.235841
    22  H    0.249330
    23  H    0.229352
    24  H    0.251728
    25  H    0.251728
 Sum of Mulliken charges =   1.00000

 Dipole moment (field-independent basis, Debye):
    X=             -1.2342    Y=             -2.5831    Z=              0.0000  Tot=              2.8628
 Quadrupole moment (field-independent basis, Debye-Ang):
   XX=            -52.4333   YY=            -34.5609   ZZ=            -84.1355
   XY=              9.0358   XZ=             -0.0000   YZ=              0.0000

 Normal termination of Gaussian 16 at Tue Aug  2 12:54:47 2022.
