 Gaussian 16, Revision C.01,
 Gaussian 16:  ES64L-G16RevC.01  3-Jul-2019

 ---------------------------------------------------------------
 #n M062X/6-311++G(d,p) TD(NStates=1) EmpiricalDispersion=GD3 SP
 ---------------------------------------------------------------

 ----
 SP_4
 ----
 Symbolic Z-matrix:
 Charge =  1 Multiplicity = 1

                         Standard orientation:
 ---------------------------------------------------------------------
 Center     Atomic      Atomic             Coordinates (Angstroms)
 Number     Number       Type             X           Y           Z
 ---------------------------------------------------------------------
      1          6           0       -2.258978   -1.555654    0.000000
      2          6           0       -2.193096   -2.949183    0.000000
      3          6           0       -0.940805   -3.616916    0.000000
      4          6           0        0.174694   -2.956752    0.000000
      5          6           0        2.282976    1.602070    0.000000
      6          6           0        2.138515    3.121668    0.000000
      7          6           0        0.921236    3.714247    0.000000
      8          6           0       -0.153765    2.848352    0.000000
      9          6           0       -1.242672    0.628233    0.000000
     10          6           0        1.294194   -0.748486    0.000000
     11          6           0       -1.157643   -0.873318    0.000000
     12          6           0        0.157845   -1.497070    0.000000
     13          6           0        0.000000    1.344374    0.000000
     14          6           0        1.224921    0.753753    0.000000
     15          1           0       -3.225673   -1.066304    0.000000
     16          1           0       -3.110838   -3.524920    0.000000
     17          1           0       -0.941437   -4.699946    0.000000
     18          1           0        1.142569   -3.442022    0.000000
     19          1           0        2.280070   -1.202022    0.000000
     20          1           0        3.306394    1.232995    0.000000
     21          1           0        3.054397    3.696251    0.000000
     22          1           0        0.800165    4.786560    0.000000
     23          1           0       -1.179618    3.213946    0.000000
     24          1           0       -1.805280    1.056779    0.859585
     25          1           0       -1.805280    1.056779   -0.859585
 ---------------------------------------------------------------------

 SCF Done:  E(RM062X) =  -539.698025151     A.U. after   16 cycles

 Excitation energies and oscillator strengths:

 Excited State   1:      Singlet-A'     2.0556 eV  603.16 nm  f=0.0142  <S**2>=0.000
      47 -> 48         0.70297
 This state for optimization and/or second-order correction.
 Total Energy, E(TD-HF/TD-DFT) =  -539.622484635
 Copying the excited state density for this state as the 1-particle RhoCI density.

 The electronic state is 1-A'.
 Alpha  occ. eigenvalues --  -10.77464 -10.74250 -10.74089 -10.73656 -10.72423
 Alpha  occ. eigenvalues --  -10.71590 -10.71249 -10.70742 -10.70374 -10.70300
 Alpha  occ. eigenvalues --  -10.70016 -10.69293 -10.68904 -10.68399  -1.17199
 Alpha  occ. eigenvalues --   -1.12543  -1.07044  -1.06611  -1.01462  -1.01149
 Alpha  occ. eigenvalues --   -0.94934  -0.90598  -0.86566  -0.85706  -0.83606
 Alpha  occ. eigenvalues --   -0.77825  -0.76803  -0.74120  -0.70574  -0.69437
 Alpha  occ. eigenvalues --   -0.68256  -0.67777  -0.67702  -0.66580  -0.64272
 Alpha  occ. eigenvalues --   -0.61943  -0.61383  -0.61133  -0.58710  -0.58286
 Alpha  occ. eigenvalues --   -0.56644  -0.55489  -0.52955  -0.52444  -0.49586
 Alpha  occ. eigenvalues --   -0.46366  -0.41343
 Alpha virt. eigenvalues --   -0.26422  -0.14828  -0.13959  -0.12505  -0.11306
 Alpha virt. eigenvalues --   -0.10141  -0.09419  -0.07873  -0.07668  -0.07541
 Alpha virt. eigenvalues --   -0.07315  -0.07098  -0.05662  -0.05536  -0.05471

 Mulliken charges:
               1
     1  C   -0.113010
     2  C   -0.372613
     3  C   -0.432619
     4  C    0.192214
     5  C    0.143559
     6  C   -0.413302
     7  C   -0.418685
     8  C    0.058684
     9  C   -0.319024
    10  C    0.046309
    11  C   -0.418928
    12  C    0.522631
    13  C   -0.221279
    14  C    0.106366
    15  H    0.239992
    16  H    0.272149
    17  H    0.254384
    18  H    0.233819
    19  H    0.202751
    20  H    0.219062
    21  H    0.237542
    22  H    0.247867
    23  H    0.226923
    24  H    0.252604
    25  H    0.252604
 Sum of Mulliken charges =   1.00000

 Dipole moment (field-independent basis, Debye):
    X=             -1.2630    Y=             -2.5994    Z=              0.0000  Tot=              2.8900
 Quadrupole moment (field-independent basis, Debye-Ang):
   XX=            -52.1783   YY=            -34.6951   ZZ=            -84.0788
   XY=              9.4334   XZ=             -0.0000   YZ=              0.0000

 Normal termination of Gaussian 16 at Tue Aug  2 12:53:40 2022.
