 Gaussian 16, Revision C.01,
 Gaussian 16:  ES64L-G16RevC.01  3-Jul-2019

 ---------------------------------------------------------------
 #n M062X/6-311++G(d,p) TD(NStates=1) EmpiricalDispersion=GD3 SP
 ---------------------------------------------------------------

 -----
 SP_10
 -----
 Symbolic Z-matrix:
 Charge =  1 Multiplicity = 1

                         Standard orientation:
 ---------------------------------------------------------------------
 Center     Atomic      Atomic             Coordinates (Angstroms)
 Number     Number       Type             X           Y           Z
 ---------------------------------------------------------------------
      1          6           0       -2.176180   -1.532236    0.000000
      2          6           0       -2.022488   -2.931878    0.000000
      3          6           0       -0.730001   -3.633048    0.000000
      4          6           0        0.252060   -3.081400    0.000000
      5          6           0        2.143874    1.573733    0.000000
      6          6           0        1.983576    3.267187    0.000000
      7          6           0        0.815934    3.855258    0.000000
      8          6           0       -0.195351    2.929098    0.000000
      9          6           0       -1.241022    0.635434    0.000000
     10          6           0        1.243382   -0.872470    0.000000
     11          6           0       -1.215613   -0.929582    0.000000
     12          6           0        0.182662   -1.545399    0.000000
     13          6           0        0.000000    1.266149    0.000000
     14          6           0        1.175204    0.739344    0.000000
     15          1           0       -3.183006   -1.130520    0.000000
     16          1           0       -2.929202   -3.530702    0.000000
     17          1           0       -0.796499   -4.725452    0.000000
     18          1           0        1.259950   -3.479003    0.000000
     19          1           0        2.251334   -1.276235    0.000000
     20          1           0        3.204026    1.293837    0.000000
     21          1           0        2.940272    3.789282    0.000000
     22          1           0        0.670311    4.921318    0.000000
     23          1           0       -1.257839    3.205447    0.000000
     24          1           0       -1.727778    1.245443    0.859585
     25          1           0       -1.727778    1.245443   -0.859585
 ---------------------------------------------------------------------

 SCF Done:  E(RM062X) =  -539.366517908     A.U. after   16 cycles

 Excitation energies and oscillator strengths:

 Excited State   1:      Singlet-A'     1.1636 eV 1065.54 nm  f=0.0613  <S**2>=0.000
      47 -> 48         0.70619
 This state for optimization and/or second-order correction.
 Total Energy, E(TD-HF/TD-DFT) =  -539.323757005
 Copying the excited state density for this state as the 1-particle RhoCI density.

 The electronic state is 1-A'.
 Alpha  occ. eigenvalues --  -10.77963 -10.74526 -10.74130 -10.72981 -10.71469
 Alpha  occ. eigenvalues --  -10.71414 -10.70585 -10.70316 -10.69925 -10.69446
 Alpha  occ. eigenvalues --  -10.68804 -10.68560 -10.68359 -10.66597  -1.19918
 Alpha  occ. eigenvalues --   -1.13077  -1.11280  -1.06683  -1.02924  -1.01539
 Alpha  occ. eigenvalues --   -0.95660  -0.88379  -0.86323  -0.84680  -0.83580
 Alpha  occ. eigenvalues --   -0.77867  -0.76540  -0.74494  -0.72672  -0.69768
 Alpha  occ. eigenvalues --   -0.69128  -0.68354  -0.66711  -0.64931  -0.63835
 Alpha  occ. eigenvalues --   -0.63259  -0.63207  -0.60081  -0.57839  -0.56258
 Alpha  occ. eigenvalues --   -0.55409  -0.54479  -0.53203  -0.52496  -0.49103
 Alpha  occ. eigenvalues --   -0.47587  -0.36933
 Alpha virt. eigenvalues --   -0.27047  -0.15558  -0.12751  -0.11572  -0.10375
 Alpha virt. eigenvalues --   -0.10307  -0.09782  -0.07833  -0.07678  -0.07547
 Alpha virt. eigenvalues --   -0.07323  -0.06156  -0.05780  -0.05499  -0.05455

 Mulliken charges:
               1
     1  C   -0.059390
     2  C   -0.380818
     3  C   -0.386986
     4  C    0.061492
     5  C   -0.104484
     6  C   -0.307599
     7  C   -0.373712
     8  C    0.177105
     9  C   -0.512027
    10  C   -0.214383
    11  C   -0.869956
    12  C    0.458954
    13  C    0.292491
    14  C    0.569521
    15  H    0.242289
    16  H    0.283404
    17  H    0.258935
    18  H    0.235623
    19  H    0.185175
    20  H    0.214145
    21  H    0.234519
    22  H    0.240614
    23  H    0.230323
    24  H    0.262382
    25  H    0.262382
 Sum of Mulliken charges =   1.00000

 Dipole moment (field-independent basis, Debye):
    X=             -2.8018    Y=             -4.4856    Z=             -0.0000  Tot=              5.2887
 Quadrupole moment (field-independent basis, Debye-Ang):
   XX=            -53.4592   YY=            -30.6157   ZZ=            -83.5192
   XY=              9.5475   XZ=             -0.0000   YZ=             -0.0000

 Normal termination of Gaussian 16 at Tue Aug  2 13:18:08 2022.
