 Gaussian 16, Revision C.01,
 Gaussian 16:  ES64L-G16RevC.01  3-Jul-2019

 ---------------------------------------------------------------
 #n M062X/6-311++G(d,p) TD(NStates=1) EmpiricalDispersion=GD3 SP
 ---------------------------------------------------------------

 ------
 SP_-10
 ------
 Symbolic Z-matrix:
 Charge =  1 Multiplicity = 1

                         Standard orientation:
 ---------------------------------------------------------------------
 Center     Atomic      Atomic             Coordinates (Angstroms)
 Number     Number       Type             X           Y           Z
 ---------------------------------------------------------------------
      1          6           0        0.004721    3.000262    0.000000
      2          6           0       -1.112922    3.796722    0.000000
      3          6           0       -2.219997    3.092197    0.000000
      4          6           0       -2.196303    1.395946    0.000000
      5          6           0       -0.139434   -3.030431    0.000000
      6          6           0        0.807543   -3.610446    0.000000
      7          6           0        2.093184   -2.904550    0.000000
      8          6           0        2.276095   -1.495887    0.000000
      9          6           0        1.289782    0.738020    0.000000
     10          6           0       -1.116264   -0.892006    0.000000
     11          6           0        0.000000    1.316663    0.000000
     12          6           0       -1.133918    0.705081    0.000000
     13          6           0        1.339923   -0.847791    0.000000
     14          6           0       -0.039400   -1.505854    0.000000
     15          1           0        1.008805    3.414983    0.000000
     16          1           0       -1.082415    4.871150    0.000000
     17          1           0       -3.236230    3.514764    0.000000
     18          1           0       -3.200582    0.983154    0.000000
     19          1           0       -2.097452   -1.342870    0.000000
     20          1           0       -1.166805   -3.397513    0.000000
     21          1           0        0.866756   -4.695742    0.000000
     22          1           0        2.993983   -3.508498    0.000000
     23          1           0        3.304903   -1.130107    0.000000
     24          1           0        1.745486    1.371563    0.859585
     25          1           0        1.745486    1.371563   -0.859585
 ---------------------------------------------------------------------

 SCF Done:  E(RM062X) =  -539.359194219     A.U. after   16 cycles

 Excitation energies and oscillator strengths:

 Excited State   1:      Singlet-A'     1.1318 eV 1095.45 nm  f=0.0460  <S**2>=0.000
      47 -> 48         0.70538
 This state for optimization and/or second-order correction.
 Total Energy, E(TD-HF/TD-DFT) =  -539.317601029
 Copying the excited state density for this state as the 1-particle RhoCI density.

 The electronic state is 1-A'.
 Alpha  occ. eigenvalues --  -10.78534 -10.75097 -10.73396 -10.72443 -10.71902
 Alpha  occ. eigenvalues --  -10.71496 -10.70867 -10.70513 -10.69934 -10.69300
 Alpha  occ. eigenvalues --  -10.68406 -10.68158 -10.67834 -10.66417  -1.20174
 Alpha  occ. eigenvalues --   -1.12965  -1.11629  -1.06773  -1.02598  -1.01174
 Alpha  occ. eigenvalues --   -0.95766  -0.88537  -0.86344  -0.84610  -0.83718
 Alpha  occ. eigenvalues --   -0.77766  -0.76638  -0.74659  -0.72898  -0.69759
 Alpha  occ. eigenvalues --   -0.69089  -0.68183  -0.66474  -0.64685  -0.63630
 Alpha  occ. eigenvalues --   -0.63374  -0.63322  -0.59991  -0.57958  -0.56351
 Alpha  occ. eigenvalues --   -0.55423  -0.54938  -0.53451  -0.52412  -0.48765
 Alpha  occ. eigenvalues --   -0.47313  -0.37043
 Alpha virt. eigenvalues --   -0.27139  -0.15355  -0.12381  -0.11600  -0.10462
 Alpha virt. eigenvalues --   -0.10363  -0.09828  -0.07792  -0.07725  -0.07559
 Alpha virt. eigenvalues --   -0.07338  -0.06141  -0.05835  -0.05414  -0.05383

 Mulliken charges:
               1
     1  C    0.189052
     2  C   -0.435749
     3  C   -0.438109
     4  C   -0.141683
     5  C    0.011830
     6  C   -0.372467
     7  C   -0.386567
     8  C   -0.040439
     9  C   -0.435385
    10  C   -0.108252
    11  C   -0.024999
    12  C    0.597933
    13  C   -0.645853
    14  C    0.607529
    15  H    0.229102
    16  H    0.234559
    17  H    0.238081
    18  H    0.210439
    19  H    0.152803
    20  H    0.239038
    21  H    0.261954
    22  H    0.282145
    23  H    0.244885
    24  H    0.265077
    25  H    0.265077
 Sum of Mulliken charges =   1.00000

 Dipole moment (field-independent basis, Debye):
    X=              3.1170    Y=             -4.7894    Z=              0.0000  Tot=              5.7143
 Quadrupole moment (field-independent basis, Debye-Ang):
   XX=            -52.5064   YY=            -30.7743   ZZ=            -83.4738
   XY=            -11.0589   XZ=              0.0000   YZ=              0.0000

 Normal termination of Gaussian 16 at Tue Aug  2 11:58:20 2022.
