 Gaussian 16, Revision C.01,
 Gaussian 16:  ES64L-G16RevC.01  3-Jul-2019

 ---------------------------------------------------------------
 #n M062X/6-311++G(d,p) TD(NStates=1) EmpiricalDispersion=GD3 SP
 ---------------------------------------------------------------

 ----
 SP_8
 ----
 Symbolic Z-matrix:
 Charge =  1 Multiplicity = 1

                         Standard orientation:
 ---------------------------------------------------------------------
 Center     Atomic      Atomic             Coordinates (Angstroms)
 Number     Number       Type             X           Y           Z
 ---------------------------------------------------------------------
      1          6           0       -2.237428   -1.527682    0.000000
      2          6           0       -2.103721   -2.927875    0.000000
      3          6           0       -0.827411   -3.619855    0.000000
      4          6           0        0.187140   -3.023240    0.000000
      5          6           0        2.209195    1.523348    0.000000
      6          6           0        2.116191    3.160939    0.000000
      7          6           0        0.951718    3.790053    0.000000
      8          6           0       -0.117414    2.926876    0.000000
      9          6           0       -1.258142    0.667135    0.000000
     10          6           0        1.217477   -0.838874    0.000000
     11          6           0       -1.238461   -0.883897    0.000000
     12          6           0        0.125733   -1.516993    0.000000
     13          6           0        0.000000    1.308793    0.000000
     14          6           0        1.178292    0.731869    0.000000
     15          1           0       -3.237619   -1.108613    0.000000
     16          1           0       -3.012133   -3.520229    0.000000
     17          1           0       -0.869955   -4.706419    0.000000
     18          1           0        1.187644   -3.440033    0.000000
     19          1           0        2.209199   -1.275415    0.000000
     20          1           0        3.239260    1.168667    0.000000
     21          1           0        3.079858    3.667365    0.000000
     22          1           0        0.852973    4.861733    0.000000
     23          1           0       -1.149048    3.279878    0.000000
     24          1           0       -1.759601    1.224743    0.859585
     25          1           0       -1.759601    1.224743   -0.859585
 ---------------------------------------------------------------------

 SCF Done:  E(RM062X) =  -539.517200532     A.U. after   16 cycles

 Excitation energies and oscillator strengths:

 Excited State   1:      Singlet-A'     1.3805 eV  898.09 nm  f=0.0327  <S**2>=0.000
      47 -> 48         0.70318
 This state for optimization and/or second-order correction.
 Total Energy, E(TD-HF/TD-DFT) =  -539.466467014
 Copying the excited state density for this state as the 1-particle RhoCI density.

 The electronic state is 1-A'.
 Alpha  occ. eigenvalues --  -10.77138 -10.75217 -10.74884 -10.73306 -10.72119
 Alpha  occ. eigenvalues --  -10.71260 -10.70666 -10.70638 -10.70291 -10.69317
 Alpha  occ. eigenvalues --  -10.69123 -10.68512 -10.68399 -10.66816  -1.19080
 Alpha  occ. eigenvalues --   -1.12789  -1.09898  -1.06665  -1.02433  -1.01206
 Alpha  occ. eigenvalues --   -0.95258  -0.89194  -0.86527  -0.85123  -0.83575
 Alpha  occ. eigenvalues --   -0.77717  -0.76892  -0.74470  -0.71983  -0.69531
 Alpha  occ. eigenvalues --   -0.69054  -0.68112  -0.66746  -0.65601  -0.63889
 Alpha  occ. eigenvalues --   -0.62912  -0.62850  -0.60748  -0.57635  -0.56660
 Alpha  occ. eigenvalues --   -0.55549  -0.54800  -0.53394  -0.52420  -0.50300
 Alpha  occ. eigenvalues --   -0.46931  -0.38241
 Alpha virt. eigenvalues --   -0.26825  -0.15086  -0.13225  -0.11508  -0.11373
 Alpha virt. eigenvalues --   -0.10271  -0.09709  -0.07786  -0.07658  -0.07563
 Alpha virt. eigenvalues --   -0.07331  -0.06363  -0.05729  -0.05550  -0.05454

 Mulliken charges:
               1
     1  C   -0.001229
     2  C   -0.413255
     3  C   -0.399260
     4  C   -0.003895
     5  C   -0.093606
     6  C   -0.420077
     7  C   -0.452548
     8  C    0.235952
     9  C   -0.422436
    10  C   -0.046409
    11  C   -0.718547
    12  C    0.658033
    13  C   -0.165396
    14  C    0.605734
    15  H    0.243867
    16  H    0.281537
    17  H    0.260777
    18  H    0.232440
    19  H    0.181917
    20  H    0.214174
    21  H    0.233656
    22  H    0.237676
    23  H    0.232563
    24  H    0.259165
    25  H    0.259165
 Sum of Mulliken charges =   1.00000

 Dipole moment (field-independent basis, Debye):
    X=             -2.5376    Y=             -4.3439    Z=              0.0000  Tot=              5.0308
 Quadrupole moment (field-independent basis, Debye-Ang):
   XX=            -52.7454   YY=            -32.1046   ZZ=            -83.7252
   XY=              9.9932   XZ=             -0.0000   YZ=              0.0000

 Normal termination of Gaussian 16 at Tue Aug  2 13:08:58 2022.
