 Gaussian 16, Revision C.01,
 Gaussian 16:  ES64L-G16RevC.01  3-Jul-2019

 ---------------------------------------------------------------
 #n M062X/6-311++G(d,p) TD(NStates=1) EmpiricalDispersion=GD3 SP
 ---------------------------------------------------------------

 -----
 SP_-2
 -----
 Symbolic Z-matrix:
 Charge =  1 Multiplicity = 1

                         Standard orientation:
 ---------------------------------------------------------------------
 Center     Atomic      Atomic             Coordinates (Angstroms)
 Number     Number       Type             X           Y           Z
 ---------------------------------------------------------------------
      1          6           0        0.201409    2.796631    0.000000
      2          6           0       -0.859000    3.685128    0.000000
      3          6           0       -2.111930    3.130607    0.000000
      4          6           0       -2.310427    1.671302    0.000000
      5          6           0       -0.185162   -2.932211    0.000000
      6          6           0        0.985965   -3.620556    0.000000
      7          6           0        2.226775   -2.964896    0.000000
      8          6           0        2.253247   -1.575119    0.000000
      9          6           0        1.225923    0.592422    0.000000
     10          6           0       -1.352082   -0.699285    0.000000
     11          6           0        0.000000    1.353750    0.000000
     12          6           0       -1.255053    0.770685    0.000000
     13          6           0        1.096959   -0.879926    0.000000
     14          6           0       -0.196944   -1.493190    0.000000
     15          1           0        1.234077    3.145889    0.000000
     16          1           0       -0.707975    4.756000    0.000000
     17          1           0       -2.993120    3.754751    0.000000
     18          1           0       -3.339835    1.316735    0.000000
     19          1           0       -2.339561   -1.153912    0.000000
     20          1           0       -1.134360   -3.457679    0.000000
     21          1           0        0.967315   -4.702380    0.000000
     22          1           0        3.150647   -3.531276    0.000000
     23          1           0        3.200444   -1.043752    0.000000
     24          1           0        1.822146    0.951789    0.859585
     25          1           0        1.822146    0.951789   -0.859585
 ---------------------------------------------------------------------

 SCF Done:  E(RM062X) =  -539.734595364     A.U. after   16 cycles

 Excitation energies and oscillator strengths:

 Excited State   1:      Singlet-A'     2.3939 eV  517.91 nm  f=0.0161  <S**2>=0.000
      47 -> 48         0.70337
 This state for optimization and/or second-order correction.
 Total Energy, E(TD-HF/TD-DFT) =  -539.646619888
 Copying the excited state density for this state as the 1-particle RhoCI density.

 The electronic state is 1-A'.
 Alpha  occ. eigenvalues --  -10.78272 -10.73609 -10.73530 -10.72477 -10.72304
 Alpha  occ. eigenvalues --  -10.72195 -10.72191 -10.70917 -10.70510 -10.70095
 Alpha  occ. eigenvalues --  -10.70085 -10.69614 -10.69506 -10.69318  -1.16638
 Alpha  occ. eigenvalues --   -1.12387  -1.06827  -1.06149  -1.01232  -1.00530
 Alpha  occ. eigenvalues --   -0.95379  -0.90860  -0.86446  -0.85832  -0.83611
 Alpha  occ. eigenvalues --   -0.78164  -0.76279  -0.74171  -0.69861  -0.69270
 Alpha  occ. eigenvalues --   -0.68475  -0.68377  -0.67929  -0.65613  -0.64363
 Alpha  occ. eigenvalues --   -0.62318  -0.61110  -0.60460  -0.59181  -0.58862
 Alpha  occ. eigenvalues --   -0.56911  -0.55381  -0.54029  -0.52439  -0.47587
 Alpha  occ. eigenvalues --   -0.46249  -0.42969
 Alpha virt. eigenvalues --   -0.26400  -0.14801  -0.14185  -0.12722  -0.11257
 Alpha virt. eigenvalues --   -0.10107  -0.09279  -0.07972  -0.07899  -0.07491
 Alpha virt. eigenvalues --   -0.07329  -0.07276  -0.05654  -0.05575  -0.05407

 Mulliken charges:
               1
     1  C   -0.004864
     2  C   -0.384763
     3  C   -0.420268
     4  C    0.187378
     5  C    0.179501
     6  C   -0.421353
     7  C   -0.359545
     8  C   -0.097682
     9  C   -0.345733
    10  C   -0.048174
    11  C   -0.219177
    12  C    0.224234
    13  C   -0.405133
    14  C    0.460985
    15  H    0.232300
    16  H    0.254690
    17  H    0.240023
    18  H    0.228076
    19  H    0.212676
    20  H    0.233931
    21  H    0.249242
    22  H    0.267272
    23  H    0.238350
    24  H    0.249016
    25  H    0.249016
 Sum of Mulliken charges =   1.00000

 Dipole moment (field-independent basis, Debye):
    X=              0.5586    Y=             -1.3799    Z=             -0.0000  Tot=              1.4886
 Quadrupole moment (field-independent basis, Debye-Ang):
   XX=            -51.9655   YY=            -35.5629   ZZ=            -84.2146
   XY=             -9.1838   XZ=              0.0000   YZ=              0.0000

 Normal termination of Gaussian 16 at Tue Aug  2 12:34:28 2022.
