 Gaussian 16, Revision C.01,
 Gaussian 16:  ES64L-G16RevC.01  3-Jul-2019

 ---------------------------------------------------------------
 #n M062X/6-311++G(d,p) TD(NStates=1) EmpiricalDispersion=GD3 SP
 ---------------------------------------------------------------

 -----
 SP_-8
 -----
 Symbolic Z-matrix:
 Charge =  1 Multiplicity = 1

                         Standard orientation:
 ---------------------------------------------------------------------
 Center     Atomic      Atomic             Coordinates (Angstroms)
 Number     Number       Type             X           Y           Z
 ---------------------------------------------------------------------
      1          6           0        2.510266    1.631561    0.000000
      2          6           0        2.518262    3.010275    0.000000
      3          6           0        1.307626    3.557475    0.000000
      4          6           0       -0.038524    2.626259    0.000000
      5          6           0       -2.571440   -1.488669    0.000000
      6          6           0       -2.588367   -2.653988    0.000000
      7          6           0       -1.328814   -3.372047    0.000000
      8          6           0       -0.041782   -2.771635    0.000000
      9          6           0        1.341390   -0.706112    0.000000
     10          6           0       -1.300986    0.483260    0.000000
     11          6           0        1.157366    0.715936    0.000000
     12          6           0        0.000000    1.335203    0.000000
     13          6           0        0.031882   -1.576907    0.000000
     14          6           0       -1.246886   -0.784214    0.000000
     15          1           0        3.433115    1.063649    0.000000
     16          1           0        3.426144    3.588169    0.000000
     17          1           0        1.118279    4.639729    0.000000
     18          1           0       -0.958861    3.197119    0.000000
     19          1           0       -2.216811    1.051049    0.000000
     20          1           0       -3.436010   -0.821590    0.000000
     21          1           0       -3.491944   -3.250739    0.000000
     22          1           0       -1.365108   -4.455104    0.000000
     23          1           0        0.821478   -3.442358    0.000000
     24          1           0        2.084878   -0.804153    0.859585
     25          1           0        2.084878   -0.804153   -0.859585
 ---------------------------------------------------------------------

 SCF Done:  E(RM062X) =  -539.515112143     A.U. after   16 cycles

 Excitation energies and oscillator strengths:

 Excited State   1:      Singlet-A'     1.4221 eV  871.84 nm  f=0.0232  <S**2>=0.000
      47 -> 48         0.70342
 This state for optimization and/or second-order correction.
 Total Energy, E(TD-HF/TD-DFT) =  -539.462850849
 Copying the excited state density for this state as the 1-particle RhoCI density.

 The electronic state is 1-A'.
 Alpha  occ. eigenvalues --  -10.77512 -10.75428 -10.74442 -10.72777 -10.72123
 Alpha  occ. eigenvalues --  -10.71779 -10.71206 -10.70761 -10.70284 -10.69228
 Alpha  occ. eigenvalues --  -10.68788 -10.68407 -10.68251 -10.66820  -1.19173
 Alpha  occ. eigenvalues --   -1.12683  -1.10038  -1.06707  -1.02177  -1.00934
 Alpha  occ. eigenvalues --   -0.95162  -0.89390  -0.86466  -0.85053  -0.83639
 Alpha  occ. eigenvalues --   -0.77671  -0.76754  -0.74570  -0.72059  -0.69476
 Alpha  occ. eigenvalues --   -0.69102  -0.67824  -0.66540  -0.65233  -0.63653
 Alpha  occ. eigenvalues --   -0.62963  -0.62908  -0.60646  -0.57678  -0.56882
 Alpha  occ. eigenvalues --   -0.55772  -0.54809  -0.53741  -0.52330  -0.50014
 Alpha  occ. eigenvalues --   -0.46704  -0.38400
 Alpha virt. eigenvalues --   -0.26763  -0.15047  -0.12877  -0.11523  -0.11510
 Alpha virt. eigenvalues --   -0.10297  -0.09732  -0.07758  -0.07668  -0.07556
 Alpha virt. eigenvalues --   -0.07337  -0.06302  -0.05783  -0.05482  -0.05428

 Mulliken charges:
               1
     1  C    0.128704
     2  C   -0.399878
     3  C   -0.491337
     4  C   -0.120557
     5  C    0.083627
     6  C   -0.393455
     7  C   -0.354857
     8  C   -0.035528
     9  C   -0.435694
    10  C   -0.081597
    11  C   -0.197305
    12  C    0.599225
    13  C   -0.568991
    14  C    0.650934
    15  H    0.230721
    16  H    0.234562
    17  H    0.239643
    18  H    0.212113
    19  H    0.147025
    20  H    0.243170
    21  H    0.261846
    22  H    0.279068
    23  H    0.247803
    24  H    0.260381
    25  H    0.260381
 Sum of Mulliken charges =   1.00000

 Dipole moment (field-independent basis, Debye):
    X=             -2.3495    Y=             -4.6880    Z=             -0.0000  Tot=              5.2438
 Quadrupole moment (field-independent basis, Debye-Ang):
   XX=            -47.7947   YY=            -36.3479   ZZ=            -83.7550
   XY=             13.7537   XZ=             -0.0000   YZ=              0.0000

 Normal termination of Gaussian 16 at Tue Aug  2 12:05:05 2022.
