 Gaussian 16, Revision C.01,
 Gaussian 16:  ES64L-G16RevC.01  3-Jul-2019

 ---------------------------------------------------------------
 #n M062X/6-311++G(d,p) TD(NStates=1) EmpiricalDispersion=GD3 SP
 ---------------------------------------------------------------

 -----
 SP_-6
 -----
 Symbolic Z-matrix:
 Charge =  1 Multiplicity = 1

                         Standard orientation:
 ---------------------------------------------------------------------
 Center     Atomic      Atomic             Coordinates (Angstroms)
 Number     Number       Type             X           Y           Z
 ---------------------------------------------------------------------
      1          6           0        0.044636    2.922514    0.000000
      2          6           0       -1.078363    3.722214    0.000000
      3          6           0       -2.239431    3.053772    0.000000
      4          6           0       -2.270862    1.474423    0.000000
      5          6           0       -0.130423   -2.963628    0.000000
      6          6           0        0.918581   -3.605594    0.000000
      7          6           0        2.181237   -2.925257    0.000000
      8          6           0        2.297374   -1.524787    0.000000
      9          6           0        1.275604    0.698040    0.000000
     10          6           0       -1.195556   -0.802558    0.000000
     11          6           0        0.000000    1.352287    0.000000
     12          6           0       -1.180595    0.726710    0.000000
     13          6           0        1.258338   -0.839776    0.000000
     14          6           0       -0.072935   -1.486562    0.000000
     15          1           0        1.042848    3.349026    0.000000
     16          1           0       -1.024873    4.797694    0.000000
     17          1           0       -3.209086    3.546146    0.000000
     18          1           0       -3.268368    1.048055    0.000000
     19          1           0       -2.170809   -1.269660    0.000000
     20          1           0       -1.123958   -3.397834    0.000000
     21          1           0        0.935127   -4.688370    0.000000
     22          1           0        3.090659   -3.512983    0.000000
     23          1           0        3.291443   -1.090096    0.000000
     24          1           0        1.795692    1.203616    0.859585
     25          1           0        1.795692    1.203616   -0.859585
 ---------------------------------------------------------------------

 SCF Done:  E(RM062X) =  -539.628585791     A.U. after   16 cycles

 Excitation energies and oscillator strengths:

 Excited State   1:      Singlet-A'     1.7452 eV  710.43 nm  f=0.0172  <S**2>=0.000
      47 -> 48         0.70296
 This state for optimization and/or second-order correction.
 Total Energy, E(TD-HF/TD-DFT) =  -539.564450559
 Copying the excited state density for this state as the 1-particle RhoCI density.

 The electronic state is 1-A'.
 Alpha  occ. eigenvalues --  -10.76075 -10.75797 -10.74904 -10.73332 -10.72354
 Alpha  occ. eigenvalues --  -10.71219 -10.71099 -10.70759 -10.70343 -10.69996
 Alpha  occ. eigenvalues --  -10.69180 -10.69060 -10.68565 -10.67465  -1.18108
 Alpha  occ. eigenvalues --   -1.12642  -1.08311  -1.06695  -1.02003  -1.01088
 Alpha  occ. eigenvalues --   -0.94840  -0.90117  -0.86572  -0.85485  -0.83628
 Alpha  occ. eigenvalues --   -0.77412  -0.77230  -0.74313  -0.71309  -0.69436
 Alpha  occ. eigenvalues --   -0.68590  -0.67950  -0.67076  -0.66160  -0.64035
 Alpha  occ. eigenvalues --   -0.62270  -0.62049  -0.61366  -0.57894  -0.57709
 Alpha  occ. eigenvalues --   -0.56115  -0.55522  -0.52431  -0.51730  -0.51569
 Alpha  occ. eigenvalues --   -0.46507  -0.39822
 Alpha virt. eigenvalues --   -0.26501  -0.14891  -0.13503  -0.12119  -0.11384
 Alpha virt. eigenvalues --   -0.10204  -0.09580  -0.07783  -0.07600  -0.07565
 Alpha virt. eigenvalues --   -0.07305  -0.06674  -0.05702  -0.05525  -0.05480

 Mulliken charges:
               1
     1  C    0.178151
     2  C   -0.418594
     3  C   -0.460834
     4  C   -0.082856
     5  C    0.037296
     6  C   -0.403040
     7  C   -0.393286
     8  C    0.015198
     9  C   -0.410985
    10  C   -0.012948
    11  C   -0.349981
    12  C    0.640258
    13  C   -0.666320
    14  C    0.701626
    15  H    0.232559
    16  H    0.239272
    17  H    0.237181
    18  H    0.213920
    19  H    0.179080
    20  H    0.233171
    21  H    0.259229
    22  H    0.276123
    23  H    0.244254
    24  H    0.255762
    25  H    0.255762
 Sum of Mulliken charges =   1.00000

 Dipole moment (field-independent basis, Debye):
    X=              2.0168    Y=             -3.6462    Z=             -0.0000  Tot=              4.1669
 Quadrupole moment (field-independent basis, Debye-Ang):
   XX=            -52.0500   YY=            -33.6403   ZZ=            -83.9003
   XY=            -10.2682   XZ=             -0.0000   YZ=             -0.0000

 Normal termination of Gaussian 16 at Tue Aug  2 12:15:17 2022.
