 Gaussian 16, Revision C.01,
 Gaussian 16:  ES64L-G16RevC.01  3-Jul-2019

 ---------------------------------------------------------------
 #n M062X/6-311++G(d,p) TD(NStates=1) EmpiricalDispersion=GD3 SP
 ---------------------------------------------------------------

 ------
 SP_-12
 ------
 Symbolic Z-matrix:
 Charge =  1 Multiplicity = 1

                         Standard orientation:
 ---------------------------------------------------------------------
 Center     Atomic      Atomic             Coordinates (Angstroms)
 Number     Number       Type             X           Y           Z
 ---------------------------------------------------------------------
      1          6           0        0.146826    2.981395    0.000000
      2          6           0       -0.879937    3.885132    0.000000
      3          6           0       -2.012101    3.258569    0.000000
      4          6           0       -2.117358    1.504160    0.000000
      5          6           0       -0.239973   -3.106270    0.000000
      6          6           0        0.686102   -3.629507    0.000000
      7          6           0        1.989571   -2.915799    0.000000
      8          6           0        2.182192   -1.512471    0.000000
      9          6           0        1.257804    0.671329    0.000000
     10          6           0       -1.184801   -0.922395    0.000000
     11          6           0        0.000000    1.256576    0.000000
     12          6           0       -1.145270    0.721849    0.000000
     13          6           0        1.276920   -0.922843    0.000000
     14          6           0       -0.142730   -1.549822    0.000000
     15          1           0        1.203106    3.274737    0.000000
     16          1           0       -0.764581    4.953102    0.000000
     17          1           0       -3.003824    3.730881    0.000000
     18          1           0       -3.172101    1.209110    0.000000
     19          1           0       -2.191204   -1.325523    0.000000
     20          1           0       -1.266336   -3.463981    0.000000
     21          1           0        0.772298   -4.722727    0.000000
     22          1           0        2.890258   -3.523582    0.000000
     23          1           0        3.208285   -1.152479    0.000000
     24          1           0        1.710311    1.350523    0.859585
     25          1           0        1.710311    1.350523   -0.859585
 ---------------------------------------------------------------------

 SCF Done:  E(RM062X) =  -539.158887537     A.U. after   17 cycles

 Excitation energies and oscillator strengths:

 Excited State   1:      Singlet-A'     1.0612 eV 1168.31 nm  f=0.0870  <S**2>=0.000
      47 -> 48         0.71573
      47 <- 48        -0.14762
 This state for optimization and/or second-order correction.
 Total Energy, E(TD-HF/TD-DFT) =  -539.119888181
 Copying the excited state density for this state as the 1-particle RhoCI density.

 The electronic state is 1-A'.
 Alpha  occ. eigenvalues --  -10.78510 -10.74187 -10.72472 -10.71974 -10.71952
 Alpha  occ. eigenvalues --  -10.70822 -10.70434 -10.69958 -10.69943 -10.69125
 Alpha  occ. eigenvalues --  -10.68916 -10.68296 -10.67946 -10.66593  -1.20732
 Alpha  occ. eigenvalues --   -1.13518  -1.12602  -1.06850  -1.03456  -1.01781
 Alpha  occ. eigenvalues --   -0.95937  -0.87950  -0.86058  -0.84493  -0.83427
 Alpha  occ. eigenvalues --   -0.77606  -0.76445  -0.74524  -0.73481  -0.69885
 Alpha  occ. eigenvalues --   -0.69368  -0.68576  -0.66817  -0.64478  -0.63615
 Alpha  occ. eigenvalues --   -0.63568  -0.62893  -0.59322  -0.58791  -0.56505
 Alpha  occ. eigenvalues --   -0.55224  -0.54924  -0.52663  -0.51923  -0.48321
 Alpha  occ. eigenvalues --   -0.47720  -0.35977
 Alpha virt. eigenvalues --   -0.27224  -0.16140  -0.11797  -0.11550  -0.10350
 Alpha virt. eigenvalues --   -0.09845  -0.09252  -0.07865  -0.07693  -0.07418
 Alpha virt. eigenvalues --   -0.07319  -0.06038  -0.05914  -0.05481  -0.05336

 Mulliken charges:
               1
     1  C    0.293974
     2  C   -0.501613
     3  C   -0.332073
     4  C   -0.160948
     5  C   -0.075332
     6  C   -0.360377
     7  C   -0.472933
     8  C   -0.050853
     9  C   -0.438532
    10  C   -0.136301
    11  C    0.203409
    12  C    0.614531
    13  C   -0.795493
    14  C    0.575790
    15  H    0.231997
    16  H    0.238228
    17  H    0.237502
    18  H    0.214918
    19  H    0.165905
    20  H    0.229586
    21  H    0.259978
    22  H    0.280504
    23  H    0.240359
    24  H    0.268887
    25  H    0.268887
 Sum of Mulliken charges =   1.00000

 Dipole moment (field-independent basis, Debye):
    X=              2.9860    Y=             -4.2450    Z=              0.0000  Tot=              5.1900
 Quadrupole moment (field-independent basis, Debye-Ang):
   XX=            -53.5647   YY=            -29.4156   ZZ=            -83.1699
   XY=            -10.0071   XZ=              0.0000   YZ=              0.0000

 Normal termination of Gaussian 16 at Tue Aug  2 11:52:39 2022.
