 Gaussian 16, Revision C.01,
 Gaussian 16:  ES64L-G16RevC.01  3-Jul-2019

 ---------------------------------------------------------------
 #n M062X/6-311++G(d,p) TD(NStates=1) EmpiricalDispersion=GD3 SP
 ---------------------------------------------------------------

 ----
 SP_0
 ----
 Symbolic Z-matrix:
 Charge =  1 Multiplicity = 1

                         Standard orientation:
 ---------------------------------------------------------------------
 Center     Atomic      Atomic             Coordinates (Angstroms)
 Number     Number       Type             X           Y           Z
 ---------------------------------------------------------------------
      1          6           0        0.000000    2.466655   -1.363799
      2          6           0        0.000000    3.689508   -0.705357
      3          6           0        0.000000    3.693861    0.680462
      4          6           0        0.000000    2.487156    1.404170
      5          6           0       -0.000000   -2.487156    1.404170
      6          6           0       -0.000000   -3.693861    0.680462
      7          6           0       -0.000000   -3.689508   -0.705357
      8          6           0       -0.000000   -2.466655   -1.363799
      9          6           0       -0.000000    0.000000   -1.422737
     10          6           0        0.000000   -0.000000    1.459821
     11          6           0        0.000000    1.256055   -0.650433
     12          6           0        0.000000    1.241471    0.757436
     13          6           0       -0.000000   -1.256055   -0.650433
     14          6           0       -0.000000   -1.241471    0.757436
     15          1           0        0.000000    2.430071   -2.447015
     16          1           0        0.000000    4.614753   -1.263057
     17          1           0        0.000000    4.629262    1.220981
     18          1           0        0.000000    2.521550    2.486691
     19          1           0        0.000000   -0.000000    2.542898
     20          1           0       -0.000000   -2.521550    2.486691
     21          1           0       -0.000000   -4.629262    1.220981
     22          1           0       -0.000000   -4.614753   -1.263057
     23          1           0       -0.000000   -2.430071   -2.447015
     24          1           0        0.859585   -0.000000   -2.115155
     25          1           0       -0.859585    0.000000   -2.115155
 ---------------------------------------------------------------------

 SCF Done:  E(RM062X) =  -539.757569228     A.U. after   15 cycles

 Excitation energies and oscillator strengths:

 Excited State   1:      Singlet-A1     2.7681 eV  447.90 nm  f=0.0277  <S**2>=0.000
      47 -> 48         0.70450
 This state for optimization and/or second-order correction.
 Total Energy, E(TD-HF/TD-DFT) =  -539.655843106
 Copying the excited state density for this state as the 1-particle RhoCI density.

 The electronic state is 1-A1.
 Alpha  occ. eigenvalues --  -10.77934 -10.73121 -10.73120 -10.72612 -10.72610
 Alpha  occ. eigenvalues --  -10.71429 -10.71429 -10.70974 -10.70974 -10.70805
 Alpha  occ. eigenvalues --  -10.69883 -10.69883 -10.69643 -10.69643  -1.16446
 Alpha  occ. eigenvalues --   -1.12449  -1.06932  -1.05807  -1.01311  -1.00162
 Alpha  occ. eigenvalues --   -0.95778  -0.91042  -0.86404  -0.85901  -0.83786
 Alpha  occ. eigenvalues --   -0.78395  -0.76055  -0.74403  -0.69474  -0.69269
 Alpha  occ. eigenvalues --   -0.68570  -0.68231  -0.68217  -0.64795  -0.64361
 Alpha  occ. eigenvalues --   -0.62938  -0.61780  -0.59900  -0.59671  -0.59097
 Alpha  occ. eigenvalues --   -0.56924  -0.55233  -0.54770  -0.52449  -0.46604
 Alpha  occ. eigenvalues --   -0.46069  -0.44389
 Alpha virt. eigenvalues --   -0.26185  -0.14685  -0.14128  -0.12761  -0.11193
 Alpha virt. eigenvalues --   -0.10087  -0.09226  -0.07990  -0.07981  -0.07477
 Alpha virt. eigenvalues --   -0.07238  -0.07193  -0.05640  -0.05581  -0.05346

 Mulliken charges:
               1
     1  C    0.047935
     2  C   -0.413597
     3  C   -0.453642
     4  C    0.115454
     5  C    0.115454
     6  C   -0.453642
     7  C   -0.413597
     8  C    0.047935
     9  C   -0.243605
    10  C    0.124856
    11  C   -0.535184
    12  C    0.485672
    13  C   -0.535184
    14  C    0.485672
    15  H    0.234167
    16  H    0.258103
    17  H    0.247834
    18  H    0.223476
    19  H    0.199407
    20  H    0.223476
    21  H    0.247834
    22  H    0.258103
    23  H    0.234167
    24  H    0.249452
    25  H    0.249452
 Sum of Mulliken charges =   1.00000

 Dipole moment (field-independent basis, Debye):
    X=             -0.0000    Y=              0.0000    Z=              0.1682  Tot=              0.1682
 Quadrupole moment (field-independent basis, Debye-Ang):
   XX=            -84.1522   YY=            -31.3093   ZZ=            -56.2008
   XY=              0.0000   XZ=              0.0000   YZ=             -0.0000

 Normal termination of Gaussian 16 at Tue Aug  2 12:37:39 2022.
