 Gaussian 16, Revision C.01,
 Gaussian 16:  ES64L-G16RevC.01  3-Jul-2019

 ---------------------------------------------------------------
 #n M062X/6-311++G(d,p) TD(NStates=1) EmpiricalDispersion=GD3 SP
 ---------------------------------------------------------------

 -----
 SP_-4
 -----
 Symbolic Z-matrix:
 Charge =  1 Multiplicity = 1

                         Standard orientation:
 ---------------------------------------------------------------------
 Center     Atomic      Atomic             Coordinates (Angstroms)
 Number     Number       Type             X           Y           Z
 ---------------------------------------------------------------------
      1          6           0        2.461129    1.604519    0.000000
      2          6           0        2.422064    2.992011    0.000000
      3          6           0        1.195288    3.572858    0.000000
      4          6           0       -0.055554    2.712055    0.000000
      5          6           0       -2.487032   -1.462142    0.000000
      6          6           0       -2.520248   -2.744316    0.000000
      7          6           0       -1.298390   -3.463991    0.000000
      8          6           0       -0.042012   -2.826661    0.000000
      9          6           0        1.333946   -0.718089    0.000000
     10          6           0       -1.248644    0.570816    0.000000
     11          6           0        1.205944    0.739399    0.000000
     12          6           0        0.000000    1.369423    0.000000
     13          6           0        0.029295   -1.522482    0.000000
     14          6           0       -1.216379   -0.767604    0.000000
     15          1           0        3.411850    1.085169    0.000000
     16          1           0        3.326975    3.577954    0.000000
     17          1           0        1.058468    4.653267    0.000000
     18          1           0       -1.003796    3.234380    0.000000
     19          1           0       -2.178568    1.114499    0.000000
     20          1           0       -3.380575   -0.842986    0.000000
     21          1           0       -3.450182   -3.295629    0.000000
     22          1           0       -1.326174   -4.545416    0.000000
     23          1           0        0.850262   -3.449476    0.000000
     24          1           0        2.007648   -0.933272    0.859585
     25          1           0        2.007648   -0.933272   -0.859585
 ---------------------------------------------------------------------

 SCF Done:  E(RM062X) =  -539.703958604     A.U. after   15 cycles

 Excitation energies and oscillator strengths:

 Excited State   1:      Singlet-A'     2.2208 eV  558.30 nm  f=0.0118  <S**2>=0.000
      47 -> 48         0.70323
 This state for optimization and/or second-order correction.
 Total Energy, E(TD-HF/TD-DFT) =  -539.622347266
 Copying the excited state density for this state as the 1-particle RhoCI density.

 The electronic state is 1-A'.
 Alpha  occ. eigenvalues --  -10.76388 -10.74844 -10.74325 -10.72941 -10.72265
 Alpha  occ. eigenvalues --  -10.71966 -10.71443 -10.70887 -10.70580 -10.70224
 Alpha  occ. eigenvalues --  -10.69784 -10.69597 -10.68938 -10.68501  -1.17227
 Alpha  occ. eigenvalues --   -1.12504  -1.06977  -1.06600  -1.01390  -1.01049
 Alpha  occ. eigenvalues --   -0.94750  -0.90830  -0.86508  -0.85707  -0.83715
 Alpha  occ. eigenvalues --   -0.77822  -0.76599  -0.74202  -0.70721  -0.69387
 Alpha  occ. eigenvalues --   -0.67930  -0.67758  -0.67507  -0.66156  -0.63980
 Alpha  occ. eigenvalues --   -0.61945  -0.61576  -0.61188  -0.59242  -0.58440
 Alpha  occ. eigenvalues --   -0.56572  -0.55636  -0.52807  -0.52381  -0.49892
 Alpha  occ. eigenvalues --   -0.46172  -0.41648
 Alpha virt. eigenvalues --   -0.26104  -0.14833  -0.13660  -0.12653  -0.11261
 Alpha virt. eigenvalues --   -0.10145  -0.09431  -0.07841  -0.07669  -0.07543
 Alpha virt. eigenvalues --   -0.07224  -0.06889  -0.05698  -0.05527  -0.05427

 Mulliken charges:
               1
     1  C    0.092071
     2  C   -0.385373
     3  C   -0.490326
     4  C   -0.059322
     5  C    0.086035
     6  C   -0.422623
     7  C   -0.369756
     8  C    0.005905
     9  C   -0.423869
    10  C   -0.030101
    11  C   -0.430226
    12  C    0.665805
    13  C   -0.562620
    14  C    0.711303
    15  H    0.235546
    16  H    0.241394
    17  H    0.243868
    18  H    0.217593
    19  H    0.160706
    20  H    0.236093
    21  H    0.257724
    22  H    0.267568
    23  H    0.245891
    24  H    0.253359
    25  H    0.253359
 Sum of Mulliken charges =   1.00000

 Dipole moment (field-independent basis, Debye):
    X=             -1.5224    Y=             -2.5398    Z=             -0.0000  Tot=              2.9612
 Quadrupole moment (field-independent basis, Debye-Ang):
   XX=            -49.1682   YY=            -37.0466   ZZ=            -84.0794
   XY=             11.9733   XZ=             -0.0000   YZ=              0.0000

 Normal termination of Gaussian 16 at Tue Aug  2 12:20:50 2022.
