 Gaussian 16, Revision C.01,
 Gaussian 16:  ES64L-G16RevC.01  3-Jul-2019

 ---------------------------------------------------------------
 #n M062X/6-311++G(d,p) TD(NStates=1) EmpiricalDispersion=GD3 SP
 ---------------------------------------------------------------

 -----
 SP_-6
 -----
 Symbolic Z-matrix:
 Charge =  1 Multiplicity = 1

                         Standard orientation:
 ---------------------------------------------------------------------
 Center     Atomic      Atomic             Coordinates (Angstroms)
 Number     Number       Type             X           Y           Z
 ---------------------------------------------------------------------
      1          6           0        2.485471    1.618325    0.000000
      2          6           0        2.469864    3.001537    0.000000
      3          6           0        1.251231    3.565511    0.000000
      4          6           0       -0.046987    2.669160    0.000000
      5          6           0       -2.529021   -1.475794    0.000000
      6          6           0       -2.554329   -2.699478    0.000000
      7          6           0       -1.313597   -3.418143    0.000000
      8          6           0       -0.041853   -2.799107    0.000000
      9          6           0        1.337664   -0.711975    0.000000
     10          6           0       -1.274590    0.526796    0.000000
     11          6           0        1.181651    0.727605    0.000000
     12          6           0        0.000000    1.352292    0.000000
     13          6           0        0.030847   -1.549661    0.000000
     14          6           0       -1.231513   -0.776068    0.000000
     15          1           0        3.422414    1.074691    0.000000
     16          1           0        3.376229    3.583517    0.000000
     17          1           0        1.088069    4.646669    0.000000
     18          1           0       -0.981435    3.215756    0.000000
     19          1           0       -2.197556    1.082498    0.000000
     20          1           0       -3.408241   -0.832668    0.000000
     21          1           0       -3.470905   -3.273493    0.000000
     22          1           0       -1.345556   -4.500393    0.000000
     23          1           0        0.836079   -3.445885    0.000000
     24          1           0        2.045935   -0.868342    0.859585
     25          1           0        2.045935   -0.868342   -0.859585
 ---------------------------------------------------------------------

 SCF Done:  E(RM062X) =  -539.628288636     A.U. after   16 cycles

 Excitation energies and oscillator strengths:

 Excited State   1:      Singlet-A'     1.8061 eV  686.48 nm  f=0.0139  <S**2>=0.000
      47 -> 48         0.70316
 This state for optimization and/or second-order correction.
 Total Energy, E(TD-HF/TD-DFT) =  -539.561916497
 Copying the excited state density for this state as the 1-particle RhoCI density.

 The electronic state is 1-A'.
 Alpha  occ. eigenvalues --  -10.75974 -10.75538 -10.75251 -10.72988 -10.72346
 Alpha  occ. eigenvalues --  -10.71576 -10.71277 -10.71107 -10.70338 -10.69682
 Alpha  occ. eigenvalues --  -10.69355 -10.68976 -10.68619 -10.67536  -1.18115
 Alpha  occ. eigenvalues --   -1.12580  -1.08290  -1.06701  -1.01885  -1.00956
 Alpha  occ. eigenvalues --   -0.94702  -0.90247  -0.86519  -0.85438  -0.83653
 Alpha  occ. eigenvalues --   -0.77530  -0.76917  -0.74342  -0.71344  -0.69363
 Alpha  occ. eigenvalues --   -0.68670  -0.67722  -0.66953  -0.65888  -0.63849
 Alpha  occ. eigenvalues --   -0.62315  -0.62031  -0.61303  -0.57985  -0.57933
 Alpha  occ. eigenvalues --   -0.56186  -0.55486  -0.52400  -0.51849  -0.51424
 Alpha  occ. eigenvalues --   -0.46379  -0.39945
 Alpha virt. eigenvalues --   -0.26386  -0.14919  -0.13308  -0.12244  -0.11375
 Alpha virt. eigenvalues --   -0.10211  -0.09589  -0.07768  -0.07605  -0.07563
 Alpha virt. eigenvalues --   -0.07290  -0.06602  -0.05735  -0.05499  -0.05474

 Mulliken charges:
               1
     1  C    0.110511
     2  C   -0.389574
     3  C   -0.498663
     4  C   -0.090839
     5  C    0.094064
     6  C   -0.408466
     7  C   -0.361161
     8  C   -0.015961
     9  C   -0.431999
    10  C   -0.055774
    11  C   -0.323078
    12  C    0.631649
    13  C   -0.563805
    14  C    0.688017
    15  H    0.233155
    16  H    0.237202
    17  H    0.241138
    18  H    0.214661
    19  H    0.154552
    20  H    0.240210
    21  H    0.260197
    22  H    0.273979
    23  H    0.247361
    24  H    0.256313
    25  H    0.256313
 Sum of Mulliken charges =   1.00000

 Dipole moment (field-independent basis, Debye):
    X=             -2.0170    Y=             -3.7167    Z=             -0.0000  Tot=              4.2288
 Quadrupole moment (field-independent basis, Debye-Ang):
   XX=            -48.4938   YY=            -36.7792   ZZ=            -83.9443
   XY=             12.8192   XZ=             -0.0000   YZ=              0.0000

 Normal termination of Gaussian 16 at Tue Aug  2 12:13:03 2022.
