 Gaussian 16, Revision C.01,
 Gaussian 16:  ES64L-G16RevC.01  3-Jul-2019

 ---------------------------------------------------------------
 #n M062X/6-311++G(d,p) TD(NStates=1) EmpiricalDispersion=GD3 SP
 ---------------------------------------------------------------

 ------
 SP_-12
 ------
 Symbolic Z-matrix:
 Charge =  1 Multiplicity = 1

                         Standard orientation:
 ---------------------------------------------------------------------
 Center     Atomic      Atomic             Coordinates (Angstroms)
 Number     Number       Type             X           Y           Z
 ---------------------------------------------------------------------
      1          6           0        2.561262    1.656216    0.000000
      2          6           0        2.616912    3.025250    0.000000
      3          6           0        1.421817    3.539218    0.000000
      4          6           0       -0.021923    2.540442    0.000000
      5          6           0       -2.657611   -1.511956    0.000000
      6          6           0       -2.656278   -2.560954    0.000000
      7          6           0       -1.359266   -3.279074    0.000000
      8          6           0       -0.041921   -2.716942    0.000000
      9          6           0        1.348858   -0.695174    0.000000
     10          6           0       -1.355182    0.397733    0.000000
     11          6           0        1.108826    0.692996    0.000000
     12          6           0        0.000000    1.301155    0.000000
     13          6           0        0.032318   -1.631588    0.000000
     14          6           0       -1.278372   -0.799497    0.000000
     15          1           0        3.454924    1.039781    0.000000
     16          1           0        3.528029    3.594572    0.000000
     17          1           0        1.180606    4.624751    0.000000
     18          1           0       -0.913040    3.159796    0.000000
     19          1           0       -2.256144    0.989904    0.000000
     20          1           0       -3.491843   -0.797039    0.000000
     21          1           0       -3.534996   -3.203277    0.000000
     22          1           0       -1.404742   -4.363681    0.000000
     23          1           0        0.790959   -3.435488    0.000000
     24          1           0        2.164809   -0.678135    0.859585
     25          1           0        2.164809   -0.678135   -0.859585
 ---------------------------------------------------------------------

 SCF Done:  E(RM062X) =  -539.143983133     A.U. after   17 cycles

 Excitation energies and oscillator strengths:

 Excited State   1:      Singlet-A'     0.9793 eV 1266.08 nm  f=0.0682  <S**2>=0.000
      47 -> 48         0.71379
      47 <- 48        -0.13102
 This state for optimization and/or second-order correction.
 Total Energy, E(TD-HF/TD-DFT) =  -539.107995420
 Copying the excited state density for this state as the 1-particle RhoCI density.

 The electronic state is 1-A'.
 Alpha  occ. eigenvalues --  -10.79263 -10.74823 -10.72490 -10.71763 -10.71431
 Alpha  occ. eigenvalues --  -10.70698 -10.70673 -10.70631 -10.69789 -10.69231
 Alpha  occ. eigenvalues --  -10.68763 -10.67722 -10.67290 -10.66407  -1.20969
 Alpha  occ. eigenvalues --   -1.13662  -1.12594  -1.06913  -1.03031  -1.01270
 Alpha  occ. eigenvalues --   -0.96123  -0.88017  -0.86068  -0.84292  -0.83642
 Alpha  occ. eigenvalues --   -0.77448  -0.76548  -0.74582  -0.73667  -0.69859
 Alpha  occ. eigenvalues --   -0.69142  -0.68513  -0.66588  -0.64630  -0.63589
 Alpha  occ. eigenvalues --   -0.63093  -0.62846  -0.59152  -0.58956  -0.56551
 Alpha  occ. eigenvalues --   -0.55549  -0.54831  -0.52511  -0.52142  -0.47975
 Alpha  occ. eigenvalues --   -0.47340  -0.36043
 Alpha virt. eigenvalues --   -0.27440  -0.15903  -0.11600  -0.11432  -0.10430
 Alpha virt. eigenvalues --   -0.09916  -0.09350  -0.07844  -0.07779  -0.07474
 Alpha virt. eigenvalues --   -0.07344  -0.06057  -0.05989  -0.05427  -0.05217

 Mulliken charges:
               1
     1  C    0.170665
     2  C   -0.437803
     3  C   -0.425213
     4  C   -0.190203
     5  C    0.030212
     6  C   -0.359128
     7  C   -0.373295
     8  C   -0.053479
     9  C   -0.427903
    10  C   -0.112989
    11  C    0.039866
    12  C    0.574395
    13  C   -0.615040
    14  C    0.565888
    15  H    0.226933
    16  H    0.235037
    17  H    0.242755
    18  H    0.210054
    19  H    0.127576
    20  H    0.243858
    21  H    0.261309
    22  H    0.280148
    23  H    0.244002
    24  H    0.271178
    25  H    0.271178
 Sum of Mulliken charges =   1.00000

 Dipole moment (field-independent basis, Debye):
    X=             -2.1648    Y=             -5.3078    Z=             -0.0000  Tot=              5.7323
 Quadrupole moment (field-independent basis, Debye-Ang):
   XX=            -46.3769   YY=            -35.6332   ZZ=            -83.1908
   XY=             15.4607   XZ=              0.0000   YZ=              0.0000

 Normal termination of Gaussian 16 at Tue Aug  2 11:49:10 2022.
