 Gaussian 16, Revision C.01,
 Gaussian 16:  ES64L-G16RevC.01  3-Jul-2019

 ---------------------------------------------------------------
 #n M062X/6-311++G(d,p) TD(NStates=1) EmpiricalDispersion=GD3 SP
 ---------------------------------------------------------------

 -----
 SP_14
 -----
 Symbolic Z-matrix:
 Charge =  1 Multiplicity = 1

                         Standard orientation:
 ---------------------------------------------------------------------
 Center     Atomic      Atomic             Coordinates (Angstroms)
 Number     Number       Type             X           Y           Z
 ---------------------------------------------------------------------
      1          6           0       -2.188200   -1.492454    0.000000
      2          6           0       -1.956859   -2.900148    0.000000
      3          6           0       -0.642607   -3.626746    0.000000
      4          6           0        0.227174   -3.131156    0.000000
      5          6           0        2.090092    1.434834    0.000000
      6          6           0        2.040977    3.249475    0.000000
      7          6           0        0.944872    3.914158    0.000000
      8          6           0       -0.097192    3.033140    0.000000
      9          6           0       -1.274040    0.707652    0.000000
     10          6           0        1.125439   -0.971623    0.000000
     11          6           0       -1.338295   -0.915092    0.000000
     12          6           0        0.102568   -1.553748    0.000000
     13          6           0        0.000000    1.247074    0.000000
     14          6           0        1.115224    0.704714    0.000000
     15          1           0       -3.234198   -1.173754    0.000000
     16          1           0       -2.851774   -3.516910    0.000000
     17          1           0       -0.748639   -4.720536    0.000000
     18          1           0        1.272621   -3.449392    0.000000
     19          1           0        2.130313   -1.374228    0.000000
     20          1           0        3.139225    1.124576    0.000000
     21          1           0        3.067086    3.671398    0.000000
     22          1           0        0.859922    4.983657    0.000000
     23          1           0       -1.147036    3.343517    0.000000
     24          1           0       -1.691213    1.455600    0.859585
     25          1           0       -1.691213    1.455600   -0.859585
 ---------------------------------------------------------------------

 SCF Done:  E(RM062X) =  -538.878634328     A.U. after   19 cycles

 Excitation energies and oscillator strengths:

 Excited State   1:      Singlet-A'     1.0243 eV 1210.43 nm  f=0.1092  <S**2>=0.000
      47 -> 48         0.73455
      47 <- 48        -0.22408
 This state for optimization and/or second-order correction.
 Total Energy, E(TD-HF/TD-DFT) =  -538.840992100
 Copying the excited state density for this state as the 1-particle RhoCI density.

 The electronic state is 1-A'.
 Alpha  occ. eigenvalues --  -10.78446 -10.73665 -10.72561 -10.71343 -10.70985
 Alpha  occ. eigenvalues --  -10.70686 -10.70666 -10.69560 -10.69410 -10.69386
 Alpha  occ. eigenvalues --  -10.68581 -10.67937 -10.67316 -10.66887  -1.21230
 Alpha  occ. eigenvalues --   -1.14197  -1.13463  -1.07093  -1.04260  -1.02022
 Alpha  occ. eigenvalues --   -0.95871  -0.87780  -0.85916  -0.84713  -0.82682
 Alpha  occ. eigenvalues --   -0.77017  -0.76363  -0.74709  -0.73903  -0.70029
 Alpha  occ. eigenvalues --   -0.69736  -0.68931  -0.67120  -0.64480  -0.63931
 Alpha  occ. eigenvalues --   -0.62884  -0.62251  -0.60164  -0.58401  -0.57029
 Alpha  occ. eigenvalues --   -0.55508  -0.54172  -0.52987  -0.50835  -0.49226
 Alpha  occ. eigenvalues --   -0.46267  -0.35224
 Alpha virt. eigenvalues --   -0.27330  -0.16943  -0.11446  -0.10702  -0.10402
 Alpha virt. eigenvalues --   -0.09919  -0.08383  -0.07926  -0.07739  -0.07317
 Alpha virt. eigenvalues --   -0.07073  -0.06130  -0.05975  -0.05594  -0.05260

 Mulliken charges:
               1
     1  C   -0.050846
     2  C   -0.497870
     3  C   -0.341950
     4  C   -0.067065
     5  C   -0.205778
     6  C   -0.308171
     7  C   -0.507182
     8  C    0.280236
     9  C   -0.430217
    10  C   -0.139235
    11  C   -0.778991
    12  C    0.534113
    13  C    0.279274
    14  C    0.611364
    15  H    0.237326
    16  H    0.273439
    17  H    0.258295
    18  H    0.229922
    19  H    0.145028
    20  H    0.215160
    21  H    0.244004
    22  H    0.239849
    23  H    0.229717
    24  H    0.274788
    25  H    0.274788
 Sum of Mulliken charges =   1.00000

 Dipole moment (field-independent basis, Debye):
    X=             -2.8843    Y=             -3.5228    Z=              0.0000  Tot=              4.5529
 Quadrupole moment (field-independent basis, Debye-Ang):
   XX=            -53.6654   YY=            -28.4678   ZZ=            -82.7836
   XY=             10.2874   XZ=             -0.0000   YZ=              0.0000

 Normal termination of Gaussian 16 at Tue Aug  2 13:32:39 2022.
