 Gaussian 16, Revision C.01,
 Gaussian 16:  ES64L-G16RevC.01  3-Jul-2019

 ---------------------------------------------------------------
 #n M062X/6-311++G(d,p) TD(NStates=1) EmpiricalDispersion=GD3 SP
 ---------------------------------------------------------------

 -----
 SP_12
 -----
 Symbolic Z-matrix:
 Charge =  1 Multiplicity = 1

                         Standard orientation:
 ---------------------------------------------------------------------
 Center     Atomic      Atomic             Coordinates (Angstroms)
 Number     Number       Type             X           Y           Z
 ---------------------------------------------------------------------
      1          6           0       -2.113471   -1.538499    0.000000
      2          6           0       -1.937178   -2.937191    0.000000
      3          6           0       -0.625856   -3.644769    0.000000
      4          6           0        0.325880   -3.137607    0.000000
      5          6           0        2.074500    1.625507    0.000000
      6          6           0        1.840746    3.371953    0.000000
      7          6           0        0.670290    3.917134    0.000000
      8          6           0       -0.278802    2.928740    0.000000
      9          6           0       -1.224225    0.602876    0.000000
     10          6           0        1.273541   -0.902928    0.000000
     11          6           0       -1.189447   -0.976828    0.000000
     12          6           0        0.244015   -1.571397    0.000000
     13          6           0        0.000000    1.224446    0.000000
     14          6           0        1.171170    0.749308    0.000000
     15          1           0       -3.127409   -1.156043    0.000000
     16          1           0       -2.841372   -3.544459    0.000000
     17          1           0       -0.713997   -4.745187    0.000000
     18          1           0        1.341527   -3.514073    0.000000
     19          1           0        2.297351   -1.271510    0.000000
     20          1           0        3.161868    1.423675    0.000000
     21          1           0        2.789333    3.911430    0.000000
     22          1           0        0.476107    4.975499    0.000000
     23          1           0       -1.369165    3.125111    0.000000
     24          1           0       -1.700612    1.265539    0.859585
     25          1           0       -1.700612    1.265539   -0.859585
 ---------------------------------------------------------------------

 SCF Done:  E(RM062X) =  -539.173062170     A.U. after   17 cycles

 Excitation energies and oscillator strengths:

 Excited State   1:      Singlet-A'     1.1144 eV 1112.52 nm  f=0.0996  <S**2>=0.000
      47 -> 48         0.71652
      47 <- 48        -0.15653
 This state for optimization and/or second-order correction.
 Total Energy, E(TD-HF/TD-DFT) =  -539.132107051
 Copying the excited state density for this state as the 1-particle RhoCI density.

 The electronic state is 1-A'.
 Alpha  occ. eigenvalues --  -10.78023 -10.73827 -10.72964 -10.72371 -10.71635
 Alpha  occ. eigenvalues --  -10.70981 -10.70438 -10.70194 -10.69628 -10.69156
 Alpha  occ. eigenvalues --  -10.69111 -10.68855 -10.68486 -10.66839  -1.20457
 Alpha  occ. eigenvalues --   -1.13581  -1.12263  -1.06768  -1.03658  -1.02089
 Alpha  occ. eigenvalues --   -0.95717  -0.87859  -0.85980  -0.84571  -0.83214
 Alpha  occ. eigenvalues --   -0.77719  -0.76266  -0.74317  -0.73183  -0.69971
 Alpha  occ. eigenvalues --   -0.69360  -0.68601  -0.66947  -0.64398  -0.63828
 Alpha  occ. eigenvalues --   -0.63550  -0.62699  -0.59352  -0.58520  -0.56473
 Alpha  occ. eigenvalues --   -0.54994  -0.54935  -0.52718  -0.51701  -0.48497
 Alpha  occ. eigenvalues --   -0.47929  -0.35923
 Alpha virt. eigenvalues --   -0.27061  -0.16397  -0.12068  -0.11540  -0.10295
 Alpha virt. eigenvalues --   -0.09795  -0.09263  -0.07901  -0.07651  -0.07408
 Alpha virt. eigenvalues --   -0.07327  -0.06034  -0.05886  -0.05546  -0.05436

 Mulliken charges:
               1
     1  C   -0.063815
     2  C   -0.508490
     3  C   -0.401968
     4  C   -0.062683
     5  C   -0.145856
     6  C   -0.282006
     7  C   -0.537340
     8  C    0.351595
     9  C   -0.420894
    10  C   -0.122226
    11  C   -0.860418
    12  C    0.575871
    13  C    0.232381
    14  C    0.588362
    15  H    0.240402
    16  H    0.281086
    17  H    0.259000
    18  H    0.226655
    19  H    0.181352
    20  H    0.221797
    21  H    0.233984
    22  H    0.241621
    23  H    0.238035
    24  H    0.266778
    25  H    0.266778
 Sum of Mulliken charges =   1.00000

 Dipole moment (field-independent basis, Debye):
    X=             -2.7339    Y=             -3.9367    Z=              0.0000  Tot=              4.7928
 Quadrupole moment (field-independent basis, Debye-Ang):
   XX=            -54.2134   YY=            -29.3424   ZZ=            -83.2748
   XY=              8.7934   XZ=             -0.0000   YZ=             -0.0000

 Normal termination of Gaussian 16 at Tue Aug  2 13:27:35 2022.
