 Gaussian 16, Revision C.01,
 Gaussian 16:  ES64L-G16RevC.01  3-Jul-2019

 ---------------------------------------------------------------
 #n M062X/6-311++G(d,p) TD(NStates=1) EmpiricalDispersion=GD3 SP
 ---------------------------------------------------------------

 -----
 SP_12
 -----
 Symbolic Z-matrix:
 Charge =  1 Multiplicity = 1

                         Standard orientation:
 ---------------------------------------------------------------------
 Center     Atomic      Atomic             Coordinates (Angstroms)
 Number     Number       Type             X           Y           Z
 ---------------------------------------------------------------------
      1          6           0       -2.249022   -1.487523    0.000000
      2          6           0       -2.037703   -2.898039    0.000000
      3          6           0       -0.739582   -3.615911    0.000000
      4          6           0        0.162252   -3.072557    0.000000
      5          6           0        2.151713    1.385788    0.000000
      6          6           0        2.171954    3.141266    0.000000
      7          6           0        1.081090    3.845147    0.000000
      8          6           0       -0.016987    3.028284    0.000000
      9          6           0       -1.289338    0.740565    0.000000
     10          6           0        1.098057   -0.934731    0.000000
     11          6           0       -1.360421   -0.866354    0.000000
     12          6           0        0.046111   -1.522985    0.000000
     13          6           0        0.000000    1.290218    0.000000
     14          6           0        1.117699    0.699194    0.000000
     15          1           0       -3.290732   -1.150461    0.000000
     16          1           0       -2.934989   -3.508942    0.000000
     17          1           0       -0.821508   -4.703619    0.000000
     18          1           0        1.202537   -3.410933    0.000000
     19          1           0        2.086688   -1.369840    0.000000
     20          1           0        3.169306    1.001502    0.000000
     21          1           0        3.202471    3.545939    0.000000
     22          1           0        1.042997    4.918381    0.000000
     23          1           0       -1.034401    3.414501    0.000000
     24          1           0       -1.718652    1.434652    0.859585
     25          1           0       -1.718652    1.434652   -0.859585
 ---------------------------------------------------------------------

 SCF Done:  E(RM062X) =  -539.147915566     A.U. after   17 cycles

 Excitation energies and oscillator strengths:

 Excited State   1:      Singlet-A'     1.0069 eV 1231.39 nm  f=0.0745  <S**2>=0.000
      47 -> 48         0.71451
      47 <- 48        -0.13700
 This state for optimization and/or second-order correction.
 Total Energy, E(TD-HF/TD-DFT) =  -539.110913951
 Copying the excited state density for this state as the 1-particle RhoCI density.

 The electronic state is 1-A'.
 Alpha  occ. eigenvalues --  -10.79009 -10.74598 -10.72303 -10.71992 -10.71607
 Alpha  occ. eigenvalues --  -10.70725 -10.70539 -10.70406 -10.69810 -10.69174
 Alpha  occ. eigenvalues --  -10.68796 -10.67878 -10.67488 -10.66445  -1.20914
 Alpha  occ. eigenvalues --   -1.13598  -1.12647  -1.06902  -1.03188  -1.01446
 Alpha  occ. eigenvalues --   -0.96081  -0.88004  -0.86080  -0.84370  -0.83584
 Alpha  occ. eigenvalues --   -0.77493  -0.76536  -0.74602  -0.73637  -0.69858
 Alpha  occ. eigenvalues --   -0.69245  -0.68541  -0.66670  -0.64575  -0.63612
 Alpha  occ. eigenvalues --   -0.63254  -0.62915  -0.59225  -0.58936  -0.56536
 Alpha  occ. eigenvalues --   -0.55452  -0.54861  -0.52572  -0.52085  -0.48101
 Alpha  occ. eigenvalues --   -0.47475  -0.36023
 Alpha virt. eigenvalues --   -0.27372  -0.15963  -0.11580  -0.11546  -0.10403
 Alpha virt. eigenvalues --   -0.09893  -0.09302  -0.07847  -0.07746  -0.07451
 Alpha virt. eigenvalues --   -0.07331  -0.06050  -0.05961  -0.05440  -0.05252

 Mulliken charges:
               1
     1  C   -0.049304
     2  C   -0.411755
     3  C   -0.357022
     4  C   -0.015344
     5  C   -0.176493
     6  C   -0.393451
     7  C   -0.459635
     8  C    0.213931
     9  C   -0.429808
    10  C   -0.125027
    11  C   -0.676669
    12  C    0.564556
    13  C    0.102028
    14  C    0.593490
    15  H    0.242089
    16  H    0.280219
    17  H    0.260913
    18  H    0.237797
    19  H    0.142787
    20  H    0.210737
    21  H    0.241002
    22  H    0.235861
    23  H    0.228079
    24  H    0.270509
    25  H    0.270509
 Sum of Mulliken charges =   1.00000

 Dipole moment (field-independent basis, Debye):
    X=             -3.2332    Y=             -4.5215    Z=              0.0000  Tot=              5.5585
 Quadrupole moment (field-independent basis, Debye-Ang):
   XX=            -52.8888   YY=            -29.4590   ZZ=            -83.1597
   XY=             11.1009   XZ=              0.0000   YZ=             -0.0000

 Normal termination of Gaussian 16 at Tue Aug  2 13:22:59 2022.
