 Gaussian 16, Revision C.01,
 Gaussian 16:  ES64L-G16RevC.01  3-Jul-2019

 ---------------------------------------------------------------
 #n M062X/6-311++G(d,p) TD(NStates=1) EmpiricalDispersion=GD3 SP
 ---------------------------------------------------------------

 -----
 SP_-6
 -----
 Symbolic Z-matrix:
 Charge =  1 Multiplicity = 1

                         Standard orientation:
 ---------------------------------------------------------------------
 Center     Atomic      Atomic             Coordinates (Angstroms)
 Number     Number       Type             X           Y           Z
 ---------------------------------------------------------------------
      1          6           0        0.166044    2.875334    0.000000
      2          6           0       -0.888332    3.761245    0.000000
      3          6           0       -2.088771    3.170086    0.000000
      4          6           0       -2.236830    1.592526    0.000000
      5          6           0       -0.198576   -2.998591    0.000000
      6          6           0        0.871908   -3.622968    0.000000
      7          6           0        2.137026   -2.943431    0.000000
      8          6           0        2.231613   -1.547404    0.000000
      9          6           0        1.241735    0.631027    0.000000
     10          6           0       -1.276081   -0.789897    0.000000
     11          6           0        0.000000    1.318186    0.000000
     12          6           0       -1.208432    0.748748    0.000000
     13          6           0        1.177543   -0.891196    0.000000
     14          6           0       -0.165241   -1.513262    0.000000
     15          1           0        1.204448    3.211766    0.000000
     16          1           0       -0.759446    4.831582    0.000000
     17          1           0       -3.018054    3.726527    0.000000
     18          1           0       -3.272831    1.252592    0.000000
     19          1           0       -2.269377   -1.227311    0.000000
     20          1           0       -1.180080   -3.455214    0.000000
     21          1           0        0.894952   -4.708608    0.000000
     22          1           0        3.051372   -3.526543    0.000000
     23          1           0        3.211973   -1.086690    0.000000
     24          1           0        1.777702    1.119738    0.859585
     25          1           0        1.777702    1.119738   -0.859585
 ---------------------------------------------------------------------

 SCF Done:  E(RM062X) =  -539.625166591     A.U. after   15 cycles

 Excitation energies and oscillator strengths:

 Excited State   1:      Singlet-A'     1.6821 eV  737.06 nm  f=0.0207  <S**2>=0.000
      47 -> 48         0.70273
 This state for optimization and/or second-order correction.
 Total Energy, E(TD-HF/TD-DFT) =  -539.563348717
 Copying the excited state density for this state as the 1-particle RhoCI density.

 The electronic state is 1-A'.
 Alpha  occ. eigenvalues --  -10.76599 -10.75648 -10.74614 -10.73717 -10.72468
 Alpha  occ. eigenvalues --  -10.71015 -10.70877 -10.70534 -10.70419 -10.70376
 Alpha  occ. eigenvalues --  -10.69268 -10.69143 -10.68598 -10.67488  -1.18034
 Alpha  occ. eigenvalues --   -1.12664  -1.08231  -1.06628  -1.02081  -1.01163
 Alpha  occ. eigenvalues --   -0.94901  -0.89932  -0.86605  -0.85475  -0.83531
 Alpha  occ. eigenvalues --   -0.77448  -0.77210  -0.74188  -0.71226  -0.69465
 Alpha  occ. eigenvalues --   -0.68434  -0.68191  -0.67216  -0.66343  -0.64149
 Alpha  occ. eigenvalues --   -0.62155  -0.61998  -0.61348  -0.57806  -0.57430
 Alpha  occ. eigenvalues --   -0.56042  -0.55473  -0.52439  -0.51686  -0.51494
 Alpha  occ. eigenvalues --   -0.46608  -0.39674
 Alpha virt. eigenvalues --   -0.26606  -0.14935  -0.13727  -0.12070  -0.11404
 Alpha virt. eigenvalues --   -0.10197  -0.09571  -0.07812  -0.07594  -0.07571
 Alpha virt. eigenvalues --   -0.07335  -0.06770  -0.05682  -0.05551  -0.05488

 Mulliken charges:
               1
     1  C    0.143221
     2  C   -0.364676
     3  C   -0.341711
     4  C    0.005123
     5  C    0.110669
     6  C   -0.399321
     7  C   -0.336203
     8  C   -0.005452
     9  C   -0.531870
    10  C   -0.205655
    11  C    0.084380
    12  C    0.558728
    13  C   -0.844115
    14  C    0.472756
    15  H    0.234230
    16  H    0.243297
    17  H    0.235716
    18  H    0.219875
    19  H    0.200831
    20  H    0.235190
    21  H    0.256966
    22  H    0.278231
    23  H    0.243488
    24  H    0.253151
    25  H    0.253151
 Sum of Mulliken charges =   1.00000

 Dipole moment (field-independent basis, Debye):
    X=              1.9157    Y=             -3.6010    Z=             -0.0000  Tot=              4.0789
 Quadrupole moment (field-independent basis, Debye-Ang):
   XX=            -52.6154   YY=            -33.4241   ZZ=            -83.9513
   XY=             -9.4490   XZ=             -0.0000   YZ=             -0.0000

 Normal termination of Gaussian 16 at Tue Aug  2 12:17:33 2022.
