 Gaussian 16, Revision C.01,
 Gaussian 16:  ES64L-G16RevC.01  3-Jul-2019

 ---------------------------------------------------------------
 #n M062X/6-311++G(d,p) TD(NStates=1) EmpiricalDispersion=GD3 SP
 ---------------------------------------------------------------

 ----
 SP_4
 ----
 Symbolic Z-matrix:
 Charge =  1 Multiplicity = 1

                         Standard orientation:
 ---------------------------------------------------------------------
 Center     Atomic      Atomic             Coordinates (Angstroms)
 Number     Number       Type             X           Y           Z
 ---------------------------------------------------------------------
      1          6           0        2.616054   -1.126350    0.000000
      2          6           0        3.699769   -0.217879    0.000000
      3          6           0        3.528587    1.190374    0.000000
      4          6           0        2.336369    1.659842    0.000000
      5          6           0       -2.422117    1.178790    0.000000
      6          6           0       -3.740092    0.425203    0.000000
      7          6           0       -3.741151   -0.933892    0.000000
      8          6           0       -2.505646   -1.574972    0.000000
      9          6           0        0.104092   -1.542063    0.000000
     10          6           0        0.000000    1.342415    0.000000
     11          6           0        1.382058   -0.682969    0.000000
     12          6           0        1.200646    0.762584    0.000000
     13          6           0       -1.175966   -0.818695    0.000000
     14          6           0       -1.240250    0.540750    0.000000
     15          1           0        2.845473   -2.193618    0.000000
     16          1           0        4.704062   -0.621486    0.000000
     17          1           0        4.403890    1.825694    0.000000
     18          1           0        2.112799    2.726925    0.000000
     19          1           0       -0.109748    2.411995    0.000000
     20          1           0       -2.475129    2.260812    0.000000
     21          1           0       -4.658534    1.015833    0.000000
     22          1           0       -4.660682   -1.497981    0.000000
     23          1           0       -2.458362   -2.658193    0.000000
     24          1           0        0.021060   -2.244405    0.859585
     25          1           0        0.021060   -2.244405   -0.859585
 ---------------------------------------------------------------------

 SCF Done:  E(RM062X) =  -539.702427836     A.U. after   15 cycles

 Excitation energies and oscillator strengths:

 Excited State   1:      Singlet-A'     2.2580 eV  549.09 nm  f=0.0111  <S**2>=0.000
      47 -> 48         0.70326
 This state for optimization and/or second-order correction.
 Total Energy, E(TD-HF/TD-DFT) =  -539.619448468
 Copying the excited state density for this state as the 1-particle RhoCI density.

 The electronic state is 1-A'.
 Alpha  occ. eigenvalues --  -10.76112 -10.75027 -10.74411 -10.72791 -10.72294
 Alpha  occ. eigenvalues --  -10.72100 -10.71636 -10.71093 -10.70450 -10.70252
 Alpha  occ. eigenvalues --  -10.69799 -10.69755 -10.68996 -10.68579  -1.17207
 Alpha  occ. eigenvalues --   -1.12450  -1.06923  -1.06550  -1.01336  -1.00987
 Alpha  occ. eigenvalues --   -0.94659  -0.90844  -0.86488  -0.85681  -0.83685
 Alpha  occ. eigenvalues --   -0.77790  -0.76461  -0.74162  -0.70744  -0.69341
 Alpha  occ. eigenvalues --   -0.67946  -0.67643  -0.67453  -0.65984  -0.63851
 Alpha  occ. eigenvalues --   -0.61892  -0.61587  -0.61177  -0.59324  -0.58442
 Alpha  occ. eigenvalues --   -0.56568  -0.55632  -0.52747  -0.52340  -0.49914
 Alpha  occ. eigenvalues --   -0.46106  -0.41700
 Alpha virt. eigenvalues --   -0.26019  -0.14877  -0.13615  -0.12730  -0.11261
 Alpha virt. eigenvalues --   -0.10148  -0.09435  -0.07843  -0.07675  -0.07546
 Alpha virt. eigenvalues --   -0.07216  -0.06848  -0.05717  -0.05532  -0.05421

 Mulliken charges:
               1
     1  C   -0.015468
     2  C   -0.356169
     3  C   -0.433081
     4  C    0.121226
     5  C   -0.050978
     6  C   -0.502573
     7  C   -0.377540
     8  C    0.060625
     9  C   -0.432349
    10  C   -0.046543
    11  C   -0.507090
    12  C    0.697397
    13  C   -0.408818
    14  C    0.642510
    15  H    0.248148
    16  H    0.266450
    17  H    0.258591
    18  H    0.240758
    19  H    0.144795
    20  H    0.219927
    21  H    0.245755
    22  H    0.240479
    23  H    0.236935
    24  H    0.253505
    25  H    0.253505
 Sum of Mulliken charges =   1.00000

 Dipole moment (field-independent basis, Debye):
    X=              2.9484    Y=              0.3559    Z=             -0.0000  Tot=              2.9698
 Quadrupole moment (field-independent basis, Debye-Ang):
   XX=            -29.8797   YY=            -56.1223   ZZ=            -84.1360
   XY=              3.3683   XZ=             -0.0000   YZ=              0.0000

 Normal termination of Gaussian 16 at Tue Aug  2 12:47:58 2022.
