 Gaussian 16, Revision C.01,
 Gaussian 16:  ES64L-G16RevC.01  3-Jul-2019

 ---------------------------------------------------------------
 #n M062X/6-311++G(d,p) TD(NStates=1) EmpiricalDispersion=GD3 SP
 ---------------------------------------------------------------

 ------
 SP_-10
 ------
 Symbolic Z-matrix:
 Charge =  1 Multiplicity = 1

                         Standard orientation:
 ---------------------------------------------------------------------
 Center     Atomic      Atomic             Coordinates (Angstroms)
 Number     Number       Type             X           Y           Z
 ---------------------------------------------------------------------
      1          6           0        0.131287    2.954168    0.000000
      2          6           0       -0.916975    3.837584    0.000000
      3          6           0       -2.065134    3.209705    0.000000
      4          6           0       -2.163381    1.513704    0.000000
      5          6           0       -0.212564   -3.064909    0.000000
      6          6           0        0.757467   -3.625042    0.000000
      7          6           0        2.047060   -2.921852    0.000000
      8          6           0        2.209932   -1.519845    0.000000
      9          6           0        1.257768    0.669443    0.000000
     10          6           0       -1.200521   -0.880672    0.000000
     11          6           0        0.000000    1.282627    0.000000
     12          6           0       -1.161822    0.726759    0.000000
     13          6           0        1.257992   -0.902905    0.000000
     14          6           0       -0.133775   -1.533445    0.000000
     15          1           0        1.175418    3.277643    0.000000
     16          1           0       -0.810118    4.907460    0.000000
     17          1           0       -3.042718    3.698731    0.000000
     18          1           0       -3.205958    1.188536    0.000000
     19          1           0       -2.199616   -1.300749    0.000000
     20          1           0       -1.226157   -3.452461    0.000000
     21          1           0        0.822074   -4.714666    0.000000
     22          1           0        2.951758   -3.521756    0.000000
     23          1           0        3.223233   -1.130014    0.000000
     24          1           0        1.734036    1.287676    0.859585
     25          1           0        1.734036    1.287676   -0.859585
 ---------------------------------------------------------------------

 SCF Done:  E(RM062X) =  -539.364037232     A.U. after   17 cycles

 Excitation energies and oscillator strengths:

 Excited State   1:      Singlet-A'     1.1522 eV 1076.02 nm  f=0.0561  <S**2>=0.000
      47 -> 48         0.70590
 This state for optimization and/or second-order correction.
 Total Energy, E(TD-HF/TD-DFT) =  -539.321693009
 Copying the excited state density for this state as the 1-particle RhoCI density.

 The electronic state is 1-A'.
 Alpha  occ. eigenvalues --  -10.78154 -10.74704 -10.73887 -10.72793 -10.71567
 Alpha  occ. eigenvalues --  -10.71453 -10.70542 -10.70471 -10.69911 -10.69363
 Alpha  occ. eigenvalues --  -10.68568 -10.68486 -10.68149 -10.66510  -1.20028
 Alpha  occ. eigenvalues --   -1.13034  -1.11439  -1.06724  -1.02824  -1.01426
 Alpha  occ. eigenvalues --   -0.95716  -0.88441  -0.86344  -0.84665  -0.83644
 Alpha  occ. eigenvalues --   -0.77834  -0.76603  -0.74581  -0.72776  -0.69757
 Alpha  occ. eigenvalues --   -0.69144  -0.68298  -0.66631  -0.64860  -0.63740
 Alpha  occ. eigenvalues --   -0.63334  -0.63299  -0.60069  -0.57900  -0.56280
 Alpha  occ. eigenvalues --   -0.55413  -0.54653  -0.53307  -0.52478  -0.48997
 Alpha  occ. eigenvalues --   -0.47503  -0.36971
 Alpha virt. eigenvalues --   -0.27082  -0.15469  -0.12624  -0.11579  -0.10387
 Alpha virt. eigenvalues --   -0.10327  -0.09799  -0.07816  -0.07695  -0.07549
 Alpha virt. eigenvalues --   -0.07326  -0.06147  -0.05796  -0.05458  -0.05444

 Mulliken charges:
               1
     1  C    0.264402
     2  C   -0.474906
     3  C   -0.381313
     4  C   -0.125627
     5  C   -0.051255
     6  C   -0.377088
     7  C   -0.433209
     8  C   -0.028982
     9  C   -0.439101
    10  C   -0.106239
    11  C    0.042040
    12  C    0.614513
    13  C   -0.758927
    14  C    0.617080
    15  H    0.232197
    16  H    0.236872
    17  H    0.234447
    18  H    0.213847
    19  H    0.174883
    20  H    0.231724
    21  H    0.261235
    22  H    0.283084
    23  H    0.242862
    24  H    0.263732
    25  H    0.263732
 Sum of Mulliken charges =   1.00000

 Dipole moment (field-independent basis, Debye):
    X=              2.9104    Y=             -4.5980    Z=              0.0000  Tot=              5.4417
 Quadrupole moment (field-independent basis, Debye-Ang):
   XX=            -53.1477   YY=            -30.6765   ZZ=            -83.4790
   XY=            -10.0790   XZ=              0.0000   YZ=              0.0000

 Normal termination of Gaussian 16 at Tue Aug  2 12:00:35 2022.
