 Gaussian 16, Revision C.01,
 Gaussian 16:  ES64L-G16RevC.01  3-Jul-2019

 ---------------------------------------------------------------
 #n M062X/6-311++G(d,p) TD(NStates=1) EmpiricalDispersion=GD3 SP
 ---------------------------------------------------------------

 ------
 SP_-12
 ------
 Symbolic Z-matrix:
 Charge =  1 Multiplicity = 1

                         Standard orientation:
 ---------------------------------------------------------------------
 Center     Atomic      Atomic             Coordinates (Angstroms)
 Number     Number       Type             X           Y           Z
 ---------------------------------------------------------------------
      1          6           0        0.212568    2.955823    0.000000
      2          6           0       -0.776175    3.902202    0.000000
      3          6           0       -1.927892    3.315816    0.000000
      4          6           0       -2.097037    1.564484    0.000000
      5          6           0       -0.281883   -3.122274    0.000000
      6          6           0        0.656849   -3.636947    0.000000
      7          6           0        1.963929   -2.926045    0.000000
      8          6           0        2.148074   -1.525360    0.000000
      9          6           0        1.241280    0.636989    0.000000
     10          6           0       -1.228939   -0.913590    0.000000
     11          6           0        0.000000    1.240315    0.000000
     12          6           0       -1.158450    0.734965    0.000000
     13          6           0        1.233688   -0.950179    0.000000
     14          6           0       -0.192790   -1.561308    0.000000
     15          1           0        1.286525    3.201191    0.000000
     16          1           0       -0.621589    4.965938    0.000000
     17          1           0       -2.898607    3.821791    0.000000
     18          1           0       -3.168696    1.315545    0.000000
     19          1           0       -2.244103   -1.299772    0.000000
     20          1           0       -1.302475   -3.489444    0.000000
     21          1           0        0.744320   -4.733555    0.000000
     22          1           0        2.866362   -3.533235    0.000000
     23          1           0        3.167643   -1.154068    0.000000
     24          1           0        1.705646    1.308131    0.859585
     25          1           0        1.705646    1.308131   -0.859585
 ---------------------------------------------------------------------

 SCF Done:  E(RM062X) =  -539.165680788     A.U. after   17 cycles

 Excitation energies and oscillator strengths:

 Excited State   1:      Singlet-A'     1.0880 eV 1139.56 nm  f=0.0933  <S**2>=0.000
      47 -> 48         0.71618
      47 <- 48        -0.15229
 This state for optimization and/or second-order correction.
 Total Energy, E(TD-HF/TD-DFT) =  -539.125697667
 Copying the excited state density for this state as the 1-particle RhoCI density.

 The electronic state is 1-A'.
 Alpha  occ. eigenvalues --  -10.78265 -10.74001 -10.72717 -10.72168 -10.71789
 Alpha  occ. eigenvalues --  -10.70894 -10.70422 -10.70054 -10.69778 -10.69131
 Alpha  occ. eigenvalues --  -10.69004 -10.68558 -10.68206 -10.66704  -1.20606
 Alpha  occ. eigenvalues --   -1.13533  -1.12468  -1.06812  -1.03565  -1.01939
 Alpha  occ. eigenvalues --   -0.95836  -0.87909  -0.86025  -0.84537  -0.83328
 Alpha  occ. eigenvalues --   -0.77666  -0.76365  -0.74435  -0.73350  -0.69921
 Alpha  occ. eigenvalues --   -0.69380  -0.68588  -0.66884  -0.64436  -0.63707
 Alpha  occ. eigenvalues --   -0.63592  -0.62815  -0.59345  -0.58669  -0.56489
 Alpha  occ. eigenvalues --   -0.55089  -0.54958  -0.52695  -0.51819  -0.48414
 Alpha  occ. eigenvalues --   -0.47829  -0.35951
 Alpha virt. eigenvalues --   -0.27144  -0.16259  -0.11931  -0.11542  -0.10323
 Alpha virt. eigenvalues --   -0.09820  -0.09250  -0.07881  -0.07671  -0.07410
 Alpha virt. eigenvalues --   -0.07320  -0.06034  -0.05896  -0.05511  -0.05385

 Mulliken charges:
               1
     1  C    0.327450
     2  C   -0.520237
     3  C   -0.305615
     4  C   -0.155017
     5  C   -0.083148
     6  C   -0.372935
     7  C   -0.494216
     8  C   -0.055514
     9  C   -0.436824
    10  C   -0.134625
    11  C    0.231850
    12  C    0.612195
    13  C   -0.842346
    14  C    0.582418
    15  H    0.234769
    16  H    0.239780
    17  H    0.235751
    18  H    0.218144
    19  H    0.174480
    20  H    0.227392
    21  H    0.259510
    22  H    0.280765
    23  H    0.240249
    24  H    0.267861
    25  H    0.267861
 Sum of Mulliken charges =   1.00000

 Dipole moment (field-independent basis, Debye):
    X=              2.8602    Y=             -4.0951    Z=             -0.0000  Tot=              4.9950
 Quadrupole moment (field-independent basis, Debye-Ang):
   XX=            -53.8940   YY=            -29.3812   ZZ=            -83.2107
   XY=             -9.4154   XZ=             -0.0000   YZ=             -0.0000

 Normal termination of Gaussian 16 at Tue Aug  2 11:53:48 2022.
