 Gaussian 16, Revision C.01,
 Gaussian 16:  ES64L-G16RevC.01  3-Jul-2019

 ---------------------------------------------------------------
 #n M062X/6-311++G(d,p) TD(NStates=1) EmpiricalDispersion=GD3 SP
 ---------------------------------------------------------------

 ----
 SP_6
 ----
 Symbolic Z-matrix:
 Charge =  1 Multiplicity = 1

                         Standard orientation:
 ---------------------------------------------------------------------
 Center     Atomic      Atomic             Coordinates (Angstroms)
 Number     Number       Type             X           Y           Z
 ---------------------------------------------------------------------
      1          6           0       -2.264699   -1.535963    0.000000
      2          6           0       -2.159599   -2.933882    0.000000
      3          6           0       -0.896006   -3.614010    0.000000
      4          6           0        0.163592   -2.981307    0.000000
      5          6           0        2.254814    1.533090    0.000000
      6          6           0        2.165388    3.112294    0.000000
      7          6           0        0.984297    3.742569    0.000000
      8          6           0       -0.105112    2.899545    0.000000
      9          6           0       -1.258909    0.664435    0.000000
     10          6           0        1.235600   -0.797021    0.000000
     11          6           0       -1.218372   -0.865772    0.000000
     12          6           0        0.118553   -1.500482    0.000000
     13          6           0        0.000000    1.335066    0.000000
     14          6           0        1.194687    0.737169    0.000000
     15          1           0       -3.251489   -1.088226    0.000000
     16          1           0       -3.071450   -3.519001    0.000000
     17          1           0       -0.916043   -4.698024    0.000000
     18          1           0        1.150715   -3.426770    0.000000
     19          1           0        2.219893   -1.249566    0.000000
     20          1           0        3.272050    1.149474    0.000000
     21          1           0        3.115355    3.636763    0.000000
     22          1           0        0.893299    4.815961    0.000000
     23          1           0       -1.123932    3.281497    0.000000
     24          1           0       -1.786902    1.161750    0.859585
     25          1           0       -1.786902    1.161750   -0.859585
 ---------------------------------------------------------------------

 SCF Done:  E(RM062X) =  -539.627332595     A.U. after   16 cycles

 Excitation energies and oscillator strengths:

 Excited State   1:      Singlet-A'     1.7139 eV  723.39 nm  f=0.0189  <S**2>=0.000
      47 -> 48         0.70285
 This state for optimization and/or second-order correction.
 Total Energy, E(TD-HF/TD-DFT) =  -539.564346836
 Copying the excited state density for this state as the 1-particle RhoCI density.

 The electronic state is 1-A'.
 Alpha  occ. eigenvalues --  -10.76339 -10.75720 -10.74752 -10.73520 -10.72398
 Alpha  occ. eigenvalues --  -10.71076 -10.71014 -10.70631 -10.70372 -10.70178
 Alpha  occ. eigenvalues --  -10.69148 -10.69144 -10.68571 -10.67465  -1.18079
 Alpha  occ. eigenvalues --   -1.12659  -1.08284  -1.06669  -1.02048  -1.01133
 Alpha  occ. eigenvalues --   -0.94880  -0.90032  -0.86592  -0.85487  -0.83589
 Alpha  occ. eigenvalues --   -0.77354  -0.77319  -0.74262  -0.71274  -0.69456
 Alpha  occ. eigenvalues --   -0.68522  -0.68069  -0.67145  -0.66261  -0.64102
 Alpha  occ. eigenvalues --   -0.62222  -0.62032  -0.61368  -0.57856  -0.57567
 Alpha  occ. eigenvalues --   -0.56079  -0.55510  -0.52439  -0.51631  -0.51626
 Alpha  occ. eigenvalues --   -0.46561  -0.39752
 Alpha virt. eigenvalues --   -0.26555  -0.14904  -0.13612  -0.12086  -0.11392
 Alpha virt. eigenvalues --   -0.10200  -0.09575  -0.07795  -0.07594  -0.07567
 Alpha virt. eigenvalues --   -0.07317  -0.06719  -0.05688  -0.05537  -0.05478

 Mulliken charges:
               1
     1  C   -0.013040
     2  C   -0.339347
     3  C   -0.395973
     4  C    0.119221
     5  C    0.017799
     6  C   -0.342428
     7  C   -0.363709
     8  C    0.122723
     9  C   -0.521692
    10  C   -0.219346
    11  C   -0.793023
    12  C    0.479022
    13  C    0.100026
    14  C    0.506566
    15  H    0.243521
    16  H    0.277015
    17  H    0.257595
    18  H    0.235114
    19  H    0.193037
    20  H    0.217147
    21  H    0.237688
    22  H    0.242042
    23  H    0.232198
    24  H    0.253922
    25  H    0.253922
 Sum of Mulliken charges =   1.00000

 Dipole moment (field-independent basis, Debye):
    X=             -1.9673    Y=             -3.6271    Z=              0.0000  Tot=              4.1263
 Quadrupole moment (field-independent basis, Debye-Ang):
   XX=            -52.3376   YY=            -33.5345   ZZ=            -83.9163
   XY=              9.8698   XZ=             -0.0000   YZ=              0.0000

 Normal termination of Gaussian 16 at Tue Aug  2 13:00:24 2022.
