 Gaussian 16, Revision C.01,
 Gaussian 16:  ES64L-G16RevC.01  3-Jul-2019

 ---------------------------------------------------------------
 #n M062X/6-311++G(d,p) TD(NStates=1) EmpiricalDispersion=GD3 SP
 ---------------------------------------------------------------

 -----
 SP_10
 -----
 Symbolic Z-matrix:
 Charge =  1 Multiplicity = 1

                         Standard orientation:
 ---------------------------------------------------------------------
 Center     Atomic      Atomic             Coordinates (Angstroms)
 Number     Number       Type             X           Y           Z
 ---------------------------------------------------------------------
      1          6           0        0.013382   -2.765532    0.000000
      2          6           0        1.325307   -3.340899    0.000000
      3          6           0        2.604172   -2.624540    0.000000
      4          6           0        2.580928   -1.520056    0.000000
      5          6           0        0.086479    2.563304    0.000000
      6          6           0       -1.273246    3.577946    0.000000
      7          6           0       -2.495248    3.085984    0.000000
      8          6           0       -2.518616    1.709069    0.000000
      9          6           0       -1.382878   -0.693861    0.000000
     10          6           0        1.308097    0.403725    0.000000
     11          6           0       -0.078409   -1.621825    0.000000
     12          6           0        1.224449   -0.821873    0.000000
     13          6           0       -1.147744    0.714644    0.000000
     14          6           0        0.000000    1.301389    0.000000
     15          1           0       -0.830173   -3.474293    0.000000
     16          1           0        1.369253   -4.425097    0.000000
     17          1           0        3.495783   -3.240747    0.000000
     18          1           0        3.426739   -0.816694    0.000000
     19          1           0        2.224063    0.967993    0.000000
     20          1           0        1.016609    3.117656    0.000000
     21          1           0       -1.019880    4.658210    0.000000
     22          1           0       -3.384626    3.691786    0.000000
     23          1           0       -3.452212    1.159432    0.000000
     24          1           0       -2.162798   -0.721547    0.859585
     25          1           0       -2.162798   -0.721547   -0.859585
 ---------------------------------------------------------------------

 SCF Done:  E(RM062X) =  -539.354910748     A.U. after   17 cycles

 Excitation energies and oscillator strengths:

 Excited State   1:      Singlet-A'     1.1151 eV 1111.86 nm  f=0.0365  <S**2>=0.000
      47 -> 48         0.70498
 This state for optimization and/or second-order correction.
 Total Energy, E(TD-HF/TD-DFT) =  -539.313931318
 Copying the excited state density for this state as the 1-particle RhoCI density.

 The electronic state is 1-A'.
 Alpha  occ. eigenvalues --  -10.78914 -10.75536 -10.72900 -10.72271 -10.72130
 Alpha  occ. eigenvalues --  -10.71640 -10.71371 -10.70555 -10.70025 -10.69377
 Alpha  occ. eigenvalues --  -10.68418 -10.67847 -10.67653 -10.66431  -1.20216
 Alpha  occ. eigenvalues --   -1.12912  -1.11652  -1.06768  -1.02337  -1.00887
 Alpha  occ. eigenvalues --   -0.95729  -0.88596  -0.86291  -0.84520  -0.83713
 Alpha  occ. eigenvalues --   -0.77703  -0.76553  -0.74606  -0.72908  -0.69777
 Alpha  occ. eigenvalues --   -0.68933  -0.68047  -0.66321  -0.64489  -0.63677
 Alpha  occ. eigenvalues --   -0.63283  -0.63052  -0.59846  -0.57920  -0.56452
 Alpha  occ. eigenvalues --   -0.55427  -0.55151  -0.53513  -0.52305  -0.48510
 Alpha  occ. eigenvalues --   -0.47094  -0.37106
 Alpha virt. eigenvalues --   -0.27177  -0.15323  -0.12165  -0.11628  -0.10602
 Alpha virt. eigenvalues --   -0.10398  -0.09856  -0.07798  -0.07749  -0.07572
 Alpha virt. eigenvalues --   -0.07367  -0.06142  -0.05886  -0.05401  -0.05323

 Mulliken charges:
               1
     1  C   -0.061313
     2  C   -0.323889
     3  C   -0.383005
     4  C    0.115307
     5  C   -0.168111
     6  C   -0.490137
     7  C   -0.400502
     8  C    0.109244
     9  C   -0.434398
    10  C   -0.091252
    11  C   -0.523730
    12  C    0.610675
    13  C   -0.124407
    14  C    0.554280
    15  H    0.249525
    16  H    0.281255
    17  H    0.262752
    18  H    0.251307
    19  H    0.120616
    20  H    0.210839
    21  H    0.241886
    22  H    0.233127
    23  H    0.228199
    24  H    0.265866
    25  H    0.265866
 Sum of Mulliken charges =   1.00000

 Dipole moment (field-independent basis, Debye):
    X=              2.4443    Y=             -5.4159    Z=              0.0000  Tot=              5.9420
 Quadrupole moment (field-independent basis, Debye-Ang):
   XX=            -47.4089   YY=            -35.2711   ZZ=            -83.5622
   XY=            -14.6993   XZ=             -0.0000   YZ=             -0.0000

 Normal termination of Gaussian 16 at Tue Aug  2 13:12:21 2022.
