 Gaussian 16, Revision C.01,
 Gaussian 16:  ES64L-G16RevC.01  3-Jul-2019

 ---------------------------------------------------------------
 #n M062X/6-311++G(d,p) TD(NStates=1) EmpiricalDispersion=GD3 SP
 ---------------------------------------------------------------

 -----
 SP_14
 -----
 Symbolic Z-matrix:
 Charge =  1 Multiplicity = 1

                         Standard orientation:
 ---------------------------------------------------------------------
 Center     Atomic      Atomic             Coordinates (Angstroms)
 Number     Number       Type             X           Y           Z
 ---------------------------------------------------------------------
      1          6           0       -2.119680   -1.518987    0.000000
      2          6           0       -1.904442   -2.920148    0.000000
      3          6           0       -0.582132   -3.639987    0.000000
      4          6           0        0.313921   -3.162720    0.000000
      5          6           0        2.049943    1.555332    0.000000
      6          6           0        1.869981    3.364454    0.000000
      7          6           0        0.733850    3.949048    0.000000
      8          6           0       -0.231631    2.982397    0.000000
      9          6           0       -1.241973    0.638068    0.000000
     10          6           0        1.215870   -0.954563    0.000000
     11          6           0       -1.251049   -0.971775    0.000000
     12          6           0        0.203939   -1.577080    0.000000
     13          6           0        0.000000    1.214613    0.000000
     14          6           0        1.141593    0.730815    0.000000
     15          1           0       -3.151624   -1.178776    0.000000
     16          1           0       -2.802253   -3.536066    0.000000
     17          1           0       -0.690020   -4.741382    0.000000
     18          1           0        1.346845   -3.498799    0.000000
     19          1           0        2.238153   -1.322620    0.000000
     20          1           0        3.132682    1.338018    0.000000
     21          1           0        2.854928    3.855072    0.000000
     22          1           0        0.569877    5.010317    0.000000
     23          1           0       -1.316630    3.196116    0.000000
     24          1           0       -1.685555    1.370662    0.859585
     25          1           0       -1.685555    1.370662   -0.859585
 ---------------------------------------------------------------------

 SCF Done:  E(RM062X) =  -538.903013259     A.U. after   19 cycles

 Excitation energies and oscillator strengths:

 Excited State   1:      Singlet-A'     1.0853 eV 1142.44 nm  f=0.1218  <S**2>=0.000
      47 -> 48         0.73352
      47 <- 48        -0.22533
 This state for optimization and/or second-order correction.
 Total Energy, E(TD-HF/TD-DFT) =  -538.863130797
 Copying the excited state density for this state as the 1-particle RhoCI density.

 The electronic state is 1-A'.
 Alpha  occ. eigenvalues --  -10.77926 -10.73312 -10.72191 -10.71489 -10.71460
 Alpha  occ. eigenvalues --  -10.71129 -10.70872 -10.69695 -10.69309 -10.69127
 Alpha  occ. eigenvalues --  -10.68991 -10.67964 -10.67836 -10.67086  -1.21033
 Alpha  occ. eigenvalues --   -1.14155  -1.13369  -1.07065  -1.04463  -1.02407
 Alpha  occ. eigenvalues --   -0.95643  -0.87720  -0.85906  -0.84731  -0.82523
 Alpha  occ. eigenvalues --   -0.77223  -0.76240  -0.74401  -0.73793  -0.70227
 Alpha  occ. eigenvalues --   -0.69729  -0.68904  -0.67198  -0.64311  -0.63922
 Alpha  occ. eigenvalues --   -0.63194  -0.62202  -0.59864  -0.58525  -0.56949
 Alpha  occ. eigenvalues --   -0.55331  -0.54288  -0.53086  -0.50631  -0.49404
 Alpha  occ. eigenvalues --   -0.46466  -0.35168
 Alpha virt. eigenvalues --   -0.27112  -0.17182  -0.11458  -0.10994  -0.10337
 Alpha virt. eigenvalues --   -0.09848  -0.08394  -0.07949  -0.07682  -0.07338
 Alpha virt. eigenvalues --   -0.07057  -0.06148  -0.05962  -0.05743  -0.05314

 Mulliken charges:
               1
     1  C   -0.073834
     2  C   -0.560452
     3  C   -0.353589
     4  C   -0.092807
     5  C   -0.195877
     6  C   -0.254229
     7  C   -0.543995
     8  C    0.354237
     9  C   -0.437310
    10  C   -0.149046
    11  C   -0.887210
    12  C    0.551562
    13  C    0.379140
    14  C    0.620933
    15  H    0.237398
    16  H    0.273735
    17  H    0.256985
    18  H    0.223854
    19  H    0.165295
    20  H    0.221265
    21  H    0.240191
    22  H    0.242689
    23  H    0.235031
    24  H    0.273016
    25  H    0.273016
 Sum of Mulliken charges =   1.00000

 Dipole moment (field-independent basis, Debye):
    X=             -2.6434    Y=             -3.2252    Z=             -0.0000  Tot=              4.1700
 Quadrupole moment (field-independent basis, Debye-Ang):
   XX=            -54.3562   YY=            -28.4513   ZZ=            -82.8532
   XY=              9.0225   XZ=             -0.0000   YZ=              0.0000

 Normal termination of Gaussian 16 at Tue Aug  2 13:35:02 2022.
