 Gaussian 16, Revision C.01,
 Gaussian 16:  ES64L-G16RevC.01  3-Jul-2019

 ---------------------------------------------------------------
 #n M062X/6-311++G(d,p) TD(NStates=1) EmpiricalDispersion=GD3 SP
 ---------------------------------------------------------------

 ----
 SP_8
 ----
 Symbolic Z-matrix:
 Charge =  1 Multiplicity = 1

                         Standard orientation:
 ---------------------------------------------------------------------
 Center     Atomic      Atomic             Coordinates (Angstroms)
 Number     Number       Type             X           Y           Z
 ---------------------------------------------------------------------
      1          6           0       -2.170169   -1.551751    0.000000
      2          6           0       -2.055603   -2.948377    0.000000
      3          6           0       -0.774288   -3.637355    0.000000
      4          6           0        0.263449   -3.056552    0.000000
      5          6           0        2.169655    1.643537    0.000000
      6          6           0        1.955400    3.275343    0.000000
      7          6           0        0.752853    3.824565    0.000000
      8          6           0       -0.242784    2.876276    0.000000
      9          6           0       -1.223710    0.599964    0.000000
     10          6           0        1.301193   -0.821874    0.000000
     11          6           0       -1.154384   -0.935332    0.000000
     12          6           0        0.222362   -1.540494    0.000000
     13          6           0        0.000000    1.275791    0.000000
     14          6           0        1.205023    0.757188    0.000000
     15          1           0       -3.158355   -1.107899    0.000000
     16          1           0       -2.968591   -3.538263    0.000000
     17          1           0       -0.821229   -4.728706    0.000000
     18          1           0        1.253468   -3.494450    0.000000
     19          1           0        2.310712   -1.226387    0.000000
     20          1           0        3.235019    1.378739    0.000000
     21          1           0        2.876450    3.846621    0.000000
     22          1           0        0.577105    4.888344    0.000000
     23          1           0       -1.311256    3.135675    0.000000
     24          1           0       -1.743651    1.140378    0.859585
     25          1           0       -1.743651    1.140378   -0.859585
 ---------------------------------------------------------------------

 SCF Done:  E(RM062X) =  -539.515829827     A.U. after   16 cycles

 Excitation energies and oscillator strengths:

 Excited State   1:      Singlet-A'     1.3562 eV  914.22 nm  f=0.0395  <S**2>=0.000
      47 -> 48         0.70306
 This state for optimization and/or second-order correction.
 Total Energy, E(TD-HF/TD-DFT) =  -539.465991359
 Copying the excited state density for this state as the 1-particle RhoCI density.

 The electronic state is 1-A'.
 Alpha  occ. eigenvalues --  -10.76898 -10.75716 -10.74585 -10.73701 -10.72240
 Alpha  occ. eigenvalues --  -10.70965 -10.70654 -10.70452 -10.70377 -10.69763
 Alpha  occ. eigenvalues --  -10.69233 -10.68853 -10.68515 -10.66943  -1.18906
 Alpha  occ. eigenvalues --   -1.12841  -1.09635  -1.06568  -1.02563  -1.01326
 Alpha  occ. eigenvalues --   -0.95223  -0.89007  -0.86518  -0.85102  -0.83454
 Alpha  occ. eigenvalues --   -0.77774  -0.76756  -0.74269  -0.71831  -0.69577
 Alpha  occ. eigenvalues --   -0.68878  -0.68313  -0.66902  -0.65752  -0.64009
 Alpha  occ. eigenvalues --   -0.62726  -0.62716  -0.60721  -0.57535  -0.56583
 Alpha  occ. eigenvalues --   -0.55429  -0.54617  -0.53042  -0.52424  -0.50459
 Alpha  occ. eigenvalues --   -0.47052  -0.38118
 Alpha virt. eigenvalues --   -0.26847  -0.15213  -0.13479  -0.11519  -0.11362
 Alpha virt. eigenvalues --   -0.10251  -0.09692  -0.07829  -0.07646  -0.07573
 Alpha virt. eigenvalues --   -0.07344  -0.06438  -0.05710  -0.05593  -0.05475

 Mulliken charges:
               1
     1  C   -0.031681
     2  C   -0.347764
     3  C   -0.406466
     4  C    0.074060
     5  C   -0.066042
     6  C   -0.322793
     7  C   -0.375112
     8  C    0.182196
     9  C   -0.535572
    10  C   -0.198064
    11  C   -0.907403
    12  C    0.465519
    13  C    0.193893
    14  C    0.610420
    15  H    0.243745
    16  H    0.283299
    17  H    0.258221
    18  H    0.236203
    19  H    0.201285
    20  H    0.219756
    21  H    0.232397
    22  H    0.242439
    23  H    0.234934
    24  H    0.256264
    25  H    0.256264
 Sum of Mulliken charges =   1.00000

 Dipole moment (field-independent basis, Debye):
    X=             -2.3775    Y=             -4.2131    Z=             -0.0000  Tot=              4.8377
 Quadrupole moment (field-independent basis, Debye-Ang):
   XX=            -53.3205   YY=            -31.9275   ZZ=            -83.8231
   XY=              9.0215   XZ=              0.0000   YZ=             -0.0000

 Normal termination of Gaussian 16 at Tue Aug  2 13:11:13 2022.
