 Gaussian 16, Revision C.01,
 Gaussian 16:  ES64L-G16RevC.01  3-Jul-2019

 ---------------------------------------------------------------
 #n M062X/6-311++G(d,p) TD(NStates=1) EmpiricalDispersion=GD3 SP
 ---------------------------------------------------------------

 ----
 SP_6
 ----
 Symbolic Z-matrix:
 Charge =  1 Multiplicity = 1

                         Standard orientation:
 ---------------------------------------------------------------------
 Center     Atomic      Atomic             Coordinates (Angstroms)
 Number     Number       Type             X           Y           Z
 ---------------------------------------------------------------------
      1          6           0        0.013073   -2.820562    0.000000
      2          6           0        1.294379   -3.432892    0.000000
      3          6           0        2.535702   -2.714678    0.000000
      4          6           0        2.496723   -1.492970    0.000000
      5          6           0        0.103740    2.648692    0.000000
      6          6           0       -1.160625    3.592210    0.000000
      7          6           0       -2.398648    3.066849    0.000000
      8          6           0       -2.469164    1.681834    0.000000
      9          6           0       -1.375584   -0.705516    0.000000
     10          6           0        1.255939    0.491779    0.000000
     11          6           0       -0.075781   -1.567091    0.000000
     12          6           0        1.193830   -0.804806    0.000000
     13          6           0       -1.196213    0.738602    0.000000
     14          6           0        0.000000    1.335762    0.000000
     15          1           0       -0.859530   -3.481395    0.000000
     16          1           0        1.329805   -4.515579    0.000000
     17          1           0        3.454018   -3.285671    0.000000
     18          1           0        3.371522   -0.837560    0.000000
     19          1           0        2.185828    1.031846    0.000000
     20          1           0        1.061201    3.154166    0.000000
     21          1           0       -0.959790    4.670585    0.000000
     22          1           0       -3.284758    3.680542    0.000000
     23          1           0       -3.430039    1.181112    0.000000
     24          1           0       -2.086240   -0.850659    0.859585
     25          1           0       -2.086240   -0.850659   -0.859585
 ---------------------------------------------------------------------

 SCF Done:  E(RM062X) =  -539.626732084     A.U. after   16 cycles

 Excitation energies and oscillator strengths:

 Excited State   1:      Singlet-A'     1.8354 eV  675.52 nm  f=0.0123  <S**2>=0.000
      47 -> 48         0.70325
 This state for optimization and/or second-order correction.
 Total Energy, E(TD-HF/TD-DFT) =  -539.559282999
 Copying the excited state density for this state as the 1-particle RhoCI density.

 The electronic state is 1-A'.
 Alpha  occ. eigenvalues --  -10.76073 -10.75444 -10.75265 -10.72833 -10.72382
 Alpha  occ. eigenvalues --  -10.71768 -10.71389 -10.71325 -10.70362 -10.69551
 Alpha  occ. eigenvalues --  -10.69492 -10.68981 -10.68678 -10.67607  -1.18092
 Alpha  occ. eigenvalues --   -1.12533  -1.08238  -1.06680  -1.01813  -1.00868
 Alpha  occ. eigenvalues --   -0.94603  -0.90291  -0.86487  -0.85394  -0.83634
 Alpha  occ. eigenvalues --   -0.77556  -0.76726  -0.74321  -0.71345  -0.69306
 Alpha  occ. eigenvalues --   -0.68684  -0.67610  -0.66898  -0.65714  -0.63733
 Alpha  occ. eigenvalues --   -0.62314  -0.61994  -0.61241  -0.58110  -0.57934
 Alpha  occ. eigenvalues --   -0.56218  -0.55447  -0.52383  -0.51859  -0.51341
 Alpha  occ. eigenvalues --   -0.46305  -0.39995
 Alpha virt. eigenvalues --   -0.26324  -0.14957  -0.13221  -0.12335  -0.11375
 Alpha virt. eigenvalues --   -0.10216  -0.09594  -0.07765  -0.07609  -0.07563
 Alpha virt. eigenvalues --   -0.07289  -0.06572  -0.05756  -0.05488  -0.05476

 Mulliken charges:
               1
     1  C   -0.034364
     2  C   -0.342786
     3  C   -0.418243
     4  C    0.137530
     5  C   -0.091194
     6  C   -0.513092
     7  C   -0.380146
     8  C    0.077085
     9  C   -0.435975
    10  C   -0.063212
    11  C   -0.506782
    12  C    0.680193
    13  C   -0.326840
    14  C    0.607615
    15  H    0.249720
    16  H    0.272975
    17  H    0.260860
    18  H    0.245523
    19  H    0.138241
    20  H    0.216326
    21  H    0.243212
    22  H    0.236440
    23  H    0.234036
    24  H    0.256439
    25  H    0.256439
 Sum of Mulliken charges =   1.00000

 Dipole moment (field-independent basis, Debye):
    X=              1.9924    Y=             -3.7546    Z=              0.0000  Tot=              4.2505
 Quadrupole moment (field-independent basis, Debye-Ang):
   XX=            -48.7950   YY=            -36.2427   ZZ=            -84.0001
   XY=            -12.7801   XZ=             -0.0000   YZ=             -0.0000

 Normal termination of Gaussian 16 at Tue Aug  2 12:55:54 2022.
