 Gaussian 16, Revision C.01,
 Gaussian 16:  ES64L-G16RevC.01  3-Jul-2019

 ---------------------------------------------------------------
 #n M062X/6-311++G(d,p) TD(NStates=1) EmpiricalDispersion=GD3 SP
 ---------------------------------------------------------------

 ----
 SP_8
 ----
 Symbolic Z-matrix:
 Charge =  1 Multiplicity = 1

                         Standard orientation:
 ---------------------------------------------------------------------
 Center     Atomic      Atomic             Coordinates (Angstroms)
 Number     Number       Type             X           Y           Z
 ---------------------------------------------------------------------
      1          6           0       -2.302967   -1.504682    0.000000
      2          6           0       -2.147928   -2.911051    0.000000
      3          6           0       -0.874222   -3.604372    0.000000
      4          6           0        0.118392   -2.988105    0.000000
      5          6           0        2.240748    1.406201    0.000000
      6          6           0        2.266299    3.043311    0.000000
      7          6           0        1.142700    3.748432    0.000000
      8          6           0        0.006031    2.972261    0.000000
      9          6           0       -1.290621    0.735095    0.000000
     10          6           0        1.135591   -0.849282    0.000000
     11          6           0       -1.318921   -0.830106    0.000000
     12          6           0        0.033505   -1.488712    0.000000
     13          6           0        0.000000    1.343204    0.000000
     14          6           0        1.150080    0.711133    0.000000
     15          1           0       -3.318587   -1.110735    0.000000
     16          1           0       -3.051983   -3.508340    0.000000
     17          1           0       -0.910314   -4.687747    0.000000
     18          1           0        1.132564   -3.383342    0.000000
     19          1           0        2.109296   -1.315468    0.000000
     20          1           0        3.231446    0.965449    0.000000
     21          1           0        3.268490    3.484396    0.000000
     22          1           0        1.119427    4.823994    0.000000
     23          1           0       -0.984455    3.414940    0.000000
     24          1           0       -1.773999    1.308447    0.859585
     25          1           0       -1.773999    1.308447   -0.859585
 ---------------------------------------------------------------------

 SCF Done:  E(RM062X) =  -539.516291661     A.U. after   16 cycles

 Excitation energies and oscillator strengths:

 Excited State   1:      Singlet-A'     1.4077 eV  880.78 nm  f=0.0262  <S**2>=0.000
      47 -> 48         0.70333
 This state for optimization and/or second-order correction.
 Total Energy, E(TD-HF/TD-DFT) =  -539.464560749
 Copying the excited state density for this state as the 1-particle RhoCI density.

 The electronic state is 1-A'.
 Alpha  occ. eigenvalues --  -10.77385 -10.75234 -10.74703 -10.72944 -10.72096
 Alpha  occ. eigenvalues --  -10.71597 -10.70998 -10.70702 -10.70270 -10.69158
 Alpha  occ. eigenvalues --  -10.68946 -10.68384 -10.68301 -10.66793  -1.19165
 Alpha  occ. eigenvalues --   -1.12722  -1.10027  -1.06707  -1.02270  -1.01037
 Alpha  occ. eigenvalues --   -0.95215  -0.89336  -0.86495  -0.85091  -0.83634
 Alpha  occ. eigenvalues --   -0.77679  -0.76847  -0.74563  -0.72053  -0.69489
 Alpha  occ. eigenvalues --   -0.69119  -0.67921  -0.66604  -0.65378  -0.63727
 Alpha  occ. eigenvalues --   -0.62987  -0.62906  -0.60698  -0.57678  -0.56795
 Alpha  occ. eigenvalues --   -0.55706  -0.54829  -0.53649  -0.52372  -0.50115
 Alpha  occ. eigenvalues --   -0.46787  -0.38351
 Alpha virt. eigenvalues --   -0.26788  -0.15041  -0.12987  -0.11507  -0.11455
 Alpha virt. eigenvalues --   -0.10288  -0.09724  -0.07762  -0.07664  -0.07558
 Alpha virt. eigenvalues --   -0.07331  -0.06318  -0.05762  -0.05503  -0.05433

 Mulliken charges:
               1
     1  C   -0.022291
     2  C   -0.377482
     3  C   -0.387419
     4  C    0.038390
     5  C   -0.113097
     6  C   -0.468719
     7  C   -0.415305
     8  C    0.165513
     9  C   -0.435306
    10  C   -0.079403
    11  C   -0.628443
    12  C    0.655155
    13  C   -0.172270
    14  C    0.618049
    15  H    0.245923
    16  H    0.279875
    17  H    0.261417
    18  H    0.238298
    19  H    0.161124
    20  H    0.211953
    21  H    0.237610
    22  H    0.235410
    23  H    0.230919
    24  H    0.260049
    25  H    0.260049
 Sum of Mulliken charges =   1.00000

 Dipole moment (field-independent basis, Debye):
    X=             -2.6840    Y=             -4.4335    Z=              0.0000  Tot=              5.1827
 Quadrupole moment (field-independent basis, Debye-Ang):
   XX=            -52.1362   YY=            -32.2579   ZZ=            -83.7220
   XY=             10.8631   XZ=             -0.0000   YZ=              0.0000

 Normal termination of Gaussian 16 at Tue Aug  2 13:06:42 2022.
