 Gaussian 16, Revision C.01,
 Gaussian 16:  ES64L-G16RevC.01  3-Jul-2019

 ---------------------------------------------------------------
 #n M062X/6-311++G(d,p) TD(NStates=1) EmpiricalDispersion=GD3 SP
 ---------------------------------------------------------------

 ------
 SP_-14
 ------
 Symbolic Z-matrix:
 Charge =  1 Multiplicity = 1

                         Standard orientation:
 ---------------------------------------------------------------------
 Center     Atomic      Atomic             Coordinates (Angstroms)
 Number     Number       Type             X           Y           Z
 ---------------------------------------------------------------------
      1          6           0        0.299646    2.954674    0.000000
      2          6           0       -0.625038    3.963163    0.000000
      3          6           0       -1.779949    3.420184    0.000000
      4          6           0       -2.026484    1.616631    0.000000
      5          6           0       -0.360527   -3.177409    0.000000
      6          6           0        0.549221   -3.647116    0.000000
      7          6           0        1.876524   -2.931484    0.000000
      8          6           0        2.084662   -1.532636    0.000000
      9          6           0        1.225131    0.603601    0.000000
     10          6           0       -1.261828   -0.943170    0.000000
     11          6           0        0.000000    1.198985    0.000000
     12          6           0       -1.154067    0.745736    0.000000
     13          6           0        1.205846   -0.999080    0.000000
     14          6           0       -0.256422   -1.586587    0.000000
     15          1           0        1.400251    3.118499    0.000000
     16          1           0       -0.420989    5.018570    0.000000
     17          1           0       -2.742597    3.944931    0.000000
     18          1           0       -3.124156    1.447312    0.000000
     19          1           0       -2.292619   -1.292942    0.000000
     20          1           0       -1.388418   -3.522147    0.000000
     21          1           0        0.657084   -4.752961    0.000000
     22          1           0        2.775785   -3.548004    0.000000
     23          1           0        3.110911   -1.181890    0.000000
     24          1           0        1.682225    1.327841    0.859585
     25          1           0        1.682225    1.327841   -0.859585
 ---------------------------------------------------------------------

 SCF Done:  E(RM062X) =  -538.917753554     A.U. after   19 cycles

 Excitation energies and oscillator strengths:

 Excited State   1:      Singlet-A'     1.1150 eV 1111.93 nm  f=0.1279  <S**2>=0.000
      47 -> 48         0.73261
      47 <- 48        -0.22532
 This state for optimization and/or second-order correction.
 Total Energy, E(TD-HF/TD-DFT) =  -538.876776680
 Copying the excited state density for this state as the 1-particle RhoCI density.

 The electronic state is 1-A'.
 Alpha  occ. eigenvalues --  -10.77674 -10.73151 -10.72020 -10.71714 -10.71583
 Alpha  occ. eigenvalues --  -10.71363 -10.71004 -10.69786 -10.69455 -10.69299
 Alpha  occ. eigenvalues --  -10.68837 -10.68124 -10.68015 -10.67219  -1.20902
 Alpha  occ. eigenvalues --   -1.14235  -1.13162  -1.07050  -1.04529  -1.02594
 Alpha  occ. eigenvalues --   -0.95505  -0.87678  -0.85889  -0.84712  -0.82426
 Alpha  occ. eigenvalues --   -0.77324  -0.76150  -0.74216  -0.73665  -0.70332
 Alpha  occ. eigenvalues --   -0.69694  -0.68883  -0.67230  -0.64227  -0.63898
 Alpha  occ. eigenvalues --   -0.63334  -0.62114  -0.59651  -0.58571  -0.56895
 Alpha  occ. eigenvalues --   -0.55225  -0.54349  -0.53123  -0.50513  -0.49474
 Alpha  occ. eigenvalues --   -0.46551  -0.35138
 Alpha virt. eigenvalues --   -0.26998  -0.17330  -0.11473  -0.11149  -0.10302
 Alpha virt. eigenvalues --   -0.09812  -0.08410  -0.07969  -0.07657  -0.07364
 Alpha virt. eigenvalues --   -0.07069  -0.06235  -0.05954  -0.05809  -0.05334

 Mulliken charges:
               1
     1  C    0.381452
     2  C   -0.559348
     3  C   -0.233027
     4  C   -0.190125
     5  C   -0.083910
     6  C   -0.372092
     7  C   -0.580522
     8  C   -0.089615
     9  C   -0.426094
    10  C   -0.144922
    11  C    0.398267
    12  C    0.612022
    13  C   -0.922100
    14  C    0.555604
    15  H    0.238560
    16  H    0.244526
    17  H    0.238303
    18  H    0.225097
    19  H    0.173071
    20  H    0.222627
    21  H    0.256336
    22  H    0.274053
    23  H    0.237844
    24  H    0.271995
    25  H    0.271995
 Sum of Mulliken charges =   1.00000

 Dipole moment (field-independent basis, Debye):
    X=              2.5222    Y=             -3.0676    Z=              0.0000  Tot=              3.9714
 Quadrupole moment (field-independent basis, Debye-Ang):
   XX=            -54.6858   YY=            -28.4355   ZZ=            -82.9242
   XY=             -8.3426   XZ=              0.0000   YZ=              0.0000

 Normal termination of Gaussian 16 at Tue Aug  2 11:46:39 2022.
