 Gaussian 16, Revision C.01,
 Gaussian 16:  ES64L-G16RevC.01  3-Jul-2019

 ---------------------------------------------------------------
 #n M062X/6-311++G(d,p) TD(NStates=1) EmpiricalDispersion=GD3 SP
 ---------------------------------------------------------------

 ------
 SP_-14
 ------
 Symbolic Z-matrix:
 Charge =  1 Multiplicity = 1

                         Standard orientation:
 ---------------------------------------------------------------------
 Center     Atomic      Atomic             Coordinates (Angstroms)
 Number     Number       Type             X           Y           Z
 ---------------------------------------------------------------------
      1          6           0       -0.034840    3.078101    0.000000
      2          6           0       -1.147088    3.871379    0.000000
      3          6           0       -2.200294    3.130715    0.000000
      4          6           0       -2.121837    1.317438    0.000000
      5          6           0       -0.148775   -3.097210    0.000000
      6          6           0        0.696279   -3.615104    0.000000
      7          6           0        2.005005   -2.883777    0.000000
      8          6           0        2.254793   -1.467078    0.000000
      9          6           0        1.304095    0.777891    0.000000
     10          6           0       -1.037226   -0.981563    0.000000
     11          6           0        0.000000    1.281040    0.000000
     12          6           0       -1.087249    0.683417    0.000000
     13          6           0        1.421441   -0.856069    0.000000
     14          6           0       -0.006000   -1.525220    0.000000
     15          1           0        0.975115    3.480959    0.000000
     16          1           0       -1.139501    4.944804    0.000000
     17          1           0       -3.263237    3.483641    0.000000
     18          1           0       -3.132885    0.918296    0.000000
     19          1           0       -2.024340   -1.416117    0.000000
     20          1           0       -1.209857   -3.397031    0.000000
     21          1           0        0.798087   -4.703019    0.000000
     22          1           0        2.897110   -3.503982    0.000000
     23          1           0        3.318210   -1.170347    0.000000
     24          1           0        1.695738    1.539517    0.859585
     25          1           0        1.695738    1.539517   -0.859585
 ---------------------------------------------------------------------

 SCF Done:  E(RM062X) =  -538.862848757     A.U. after   18 cycles

 Excitation energies and oscillator strengths:

 Excited State   1:      Singlet-A'     0.9614 eV 1289.64 nm  f=0.0964  <S**2>=0.000
      47 -> 48         0.73469
      47 <- 48        -0.22107
 This state for optimization and/or second-order correction.
 Total Energy, E(TD-HF/TD-DFT) =  -538.827518396
 Copying the excited state density for this state as the 1-particle RhoCI density.

 The electronic state is 1-A'.
 Alpha  occ. eigenvalues --  -10.78989 -10.74062 -10.72960 -10.71250 -10.70602
 Alpha  occ. eigenvalues --  -10.70578 -10.70196 -10.69898 -10.69607 -10.69487
 Alpha  occ. eigenvalues --  -10.68178 -10.68011 -10.66876 -10.66777  -1.21344
 Alpha  occ. eigenvalues --   -1.14409  -1.13246  -1.07112  -1.03963  -1.01623
 Alpha  occ. eigenvalues --   -0.96028  -0.87807  -0.85881  -0.84619  -0.82805
 Alpha  occ. eigenvalues --   -0.76882  -0.76393  -0.74821  -0.73889  -0.69927
 Alpha  occ. eigenvalues --   -0.69578  -0.68921  -0.67011  -0.64657  -0.63901
 Alpha  occ. eigenvalues --   -0.62556  -0.62115  -0.60277  -0.58230  -0.57071
 Alpha  occ. eigenvalues --   -0.55653  -0.54063  -0.52851  -0.50987  -0.48993
 Alpha  occ. eigenvalues --   -0.46033  -0.35272
 Alpha virt. eigenvalues --   -0.27531  -0.16775  -0.11459  -0.10463  -0.10438
 Alpha virt. eigenvalues --   -0.09989  -0.08403  -0.07929  -0.07812  -0.07325
 Alpha virt. eigenvalues --   -0.07136  -0.06183  -0.05981  -0.05524  -0.05198

 Mulliken charges:
               1
     1  C    0.192723
     2  C   -0.461471
     3  C   -0.373442
     4  C   -0.229033
     5  C    0.000145
     6  C   -0.340390
     7  C   -0.409978
     8  C   -0.044148
     9  C   -0.423104
    10  C   -0.112835
    11  C    0.141378
    12  C    0.581965
    13  C   -0.663199
    14  C    0.534460
    15  H    0.226521
    16  H    0.238084
    17  H    0.247708
    18  H    0.212408
    19  H    0.116041
    20  H    0.241169
    21  H    0.259220
    22  H    0.273487
    23  H    0.239776
    24  H    0.276257
    25  H    0.276257
 Sum of Mulliken charges =   1.00000

 Dipole moment (field-independent basis, Debye):
    X=              3.1215    Y=             -3.8018    Z=             -0.0000  Tot=              4.9190
 Quadrupole moment (field-independent basis, Debye-Ang):
   XX=            -52.9590   YY=            -28.4424   ZZ=            -82.8117
   XY=            -11.4250   XZ=              0.0000   YZ=             -0.0000

 Normal termination of Gaussian 16 at Tue Aug  2 11:40:18 2022.
