 Gaussian 16, Revision C.01,
 Gaussian 16:  ES64L-G16RevC.01  3-Jul-2019

 ---------------------------------------------------------------
 #n M062X/6-311++G(d,p) TD(NStates=1) EmpiricalDispersion=GD3 SP
 ---------------------------------------------------------------

 -----
 SP_14
 -----
 Symbolic Z-matrix:
 Charge =  1 Multiplicity = 1

                         Standard orientation:
 ---------------------------------------------------------------------
 Center     Atomic      Atomic             Coordinates (Angstroms)
 Number     Number       Type             X           Y           Z
 ---------------------------------------------------------------------
      1          6           0        0.014102   -2.710841    0.000000
      2          6           0        1.356304   -3.247838    0.000000
      3          6           0        2.672469   -2.531622    0.000000
      4          6           0        2.666960   -1.543852    0.000000
      5          6           0        0.069636    2.477912    0.000000
      6          6           0       -1.387821    3.560795    0.000000
      7          6           0       -2.594421    3.101793    0.000000
      8          6           0       -2.570012    1.733866    0.000000
      9          6           0       -1.390187   -0.683292    0.000000
     10          6           0        1.362165    0.317717    0.000000
     11          6           0       -0.078825   -1.676851    0.000000
     12          6           0        1.256093   -0.837603    0.000000
     13          6           0       -1.099313    0.691193    0.000000
     14          6           0        0.000000    1.267184    0.000000
     15          1           0       -0.798998   -3.467449    0.000000
     16          1           0        1.409458   -4.333459    0.000000
     17          1           0        3.538891   -3.193179    0.000000
     18          1           0        3.482379   -0.792616    0.000000
     19          1           0        2.263432    0.906483    0.000000
     20          1           0        0.971109    3.081134    0.000000
     21          1           0       -1.082600    4.644428    0.000000
     22          1           0       -3.487359    3.699171    0.000000
     23          1           0       -3.475006    1.135319    0.000000
     24          1           0       -2.242108   -0.595601    0.859585
     25          1           0       -2.242108   -0.595601   -0.859585
 ---------------------------------------------------------------------

 SCF Done:  E(RM062X) =  -538.858479140     A.U. after   18 cycles

 Excitation energies and oscillator strengths:

 Excited State   1:      Singlet-A'     0.9291 eV 1334.46 nm  f=0.0900  <S**2>=0.000
      47 -> 48         0.73446
      47 <- 48        -0.21886
 This state for optimization and/or second-order correction.
 Total Energy, E(TD-HF/TD-DFT) =  -538.824335485
 Copying the excited state density for this state as the 1-particle RhoCI density.

 The electronic state is 1-A'.
 Alpha  occ. eigenvalues --  -10.79272 -10.74279 -10.73168 -10.71221 -10.70599
 Alpha  occ. eigenvalues --  -10.70404 -10.70197 -10.69958 -10.69737 -10.69474
 Alpha  occ. eigenvalues --  -10.68087 -10.68030 -10.66756 -10.66686  -1.21371
 Alpha  occ. eigenvalues --   -1.14499  -1.13106  -1.07116  -1.03781  -1.01418
 Alpha  occ. eigenvalues --   -0.96080  -0.87807  -0.85845  -0.84545  -0.82855
 Alpha  occ. eigenvalues --   -0.76850  -0.76381  -0.74777  -0.73850  -0.69915
 Alpha  occ. eigenvalues --   -0.69438  -0.68898  -0.66940  -0.64747  -0.63873
 Alpha  occ. eigenvalues --   -0.62392  -0.61974  -0.60264  -0.58126  -0.57077
 Alpha  occ. eigenvalues --   -0.55719  -0.54013  -0.52767  -0.51040  -0.48856
 Alpha  occ. eigenvalues --   -0.45905  -0.35293
 Alpha virt. eigenvalues --   -0.27624  -0.16715  -0.11474  -0.10493  -0.10321
 Alpha virt. eigenvalues --   -0.10024  -0.08424  -0.07943  -0.07854  -0.07337
 Alpha virt. eigenvalues --   -0.07183  -0.06218  -0.05983  -0.05514  -0.05182

 Mulliken charges:
               1
     1  C   -0.048504
     2  C   -0.360076
     3  C   -0.338433
     4  C    0.047921
     5  C   -0.250965
     6  C   -0.405348
     7  C   -0.438804
     8  C    0.147771
     9  C   -0.427381
    10  C   -0.091851
    11  C   -0.603681
    12  C    0.540978
    13  C    0.068150
    14  C    0.559521
    15  H    0.242298
    16  H    0.273554
    17  H    0.259431
    18  H    0.248695
    19  H    0.097447
    20  H    0.212472
    21  H    0.249473
    22  H    0.237603
    23  H    0.225694
    24  H    0.277019
    25  H    0.277019
 Sum of Mulliken charges =   1.00000

 Dipole moment (field-independent basis, Debye):
    X=              1.6083    Y=             -4.8364    Z=              0.0000  Tot=              5.0968
 Quadrupole moment (field-independent basis, Debye-Ang):
   XX=            -46.0308   YY=            -34.9836   ZZ=            -82.8629
   XY=            -16.0829   XZ=             -0.0000   YZ=             -0.0000

 Normal termination of Gaussian 16 at Tue Aug  2 13:28:45 2022.
