 Gaussian 16, Revision C.01,
 Gaussian 16:  ES64L-G16RevC.01  3-Jul-2019

 ---------------------------------------------------------------
 #n M062X/6-311++G(d,p) TD(NStates=1) EmpiricalDispersion=GD3 SP
 ---------------------------------------------------------------

 -----
 SP_-4
 -----
 Symbolic Z-matrix:
 Charge =  1 Multiplicity = 1

                         Standard orientation:
 ---------------------------------------------------------------------
 Center     Atomic      Atomic             Coordinates (Angstroms)
 Number     Number       Type             X           Y           Z
 ---------------------------------------------------------------------
      1          6           0        0.094294    2.872198    0.000000
      2          6           0       -1.014833    3.695159    0.000000
      3          6           0       -2.212830    3.063787    0.000000
      4          6           0       -2.300248    1.542931    0.000000
      5          6           0       -0.141816   -2.939149    0.000000
      6          6           0        0.963318   -3.607562    0.000000
      7          6           0        2.214737   -2.939888    0.000000
      8          6           0        2.291762   -1.544666    0.000000
      9          6           0        1.260050    0.661369    0.000000
     10          6           0       -1.254822   -0.755129    0.000000
     11          6           0        0.000000    1.361442    0.000000
     12          6           0       -1.211014    0.742651    0.000000
     13          6           0        1.197769   -0.848488    0.000000
     14          6           0       -0.112188   -1.483926    0.000000
     15          1           0        1.100008    3.282552    0.000000
     16          1           0       -0.931234    4.770181    0.000000
     17          1           0       -3.149309    3.606905    0.000000
     18          1           0       -3.304364    1.130926    0.000000
     19          1           0       -2.231643   -1.223244    0.000000
     20          1           0       -1.115292   -3.412742    0.000000
     21          1           0        0.960435   -4.689512    0.000000
     22          1           0        3.129771   -3.518072    0.000000
     23          1           0        3.264884   -1.068803    0.000000
     24          1           0        1.815839    1.098721    0.859585
     25          1           0        1.815839    1.098721   -0.859585
 ---------------------------------------------------------------------

 SCF Done:  E(RM062X) =  -539.701306252     A.U. after   16 cycles

 Excitation energies and oscillator strengths:

 Excited State   1:      Singlet-A'     2.0992 eV  590.64 nm  f=0.0137  <S**2>=0.000
      47 -> 48         0.70305
 This state for optimization and/or second-order correction.
 Total Energy, E(TD-HF/TD-DFT) =  -539.624163397
 Copying the excited state density for this state as the 1-particle RhoCI density.

 The electronic state is 1-A'.
 Alpha  occ. eigenvalues --  -10.77200 -10.74377 -10.74131 -10.73462 -10.72343
 Alpha  occ. eigenvalues --  -10.71657 -10.71061 -10.70904 -10.70455 -10.70254
 Alpha  occ. eigenvalues --  -10.69914 -10.69319 -10.68881 -10.68393  -1.17221
 Alpha  occ. eigenvalues --   -1.12560  -1.07048  -1.06636  -1.01469  -1.01144
 Alpha  occ. eigenvalues --   -0.94916  -0.90682  -0.86556  -0.85722  -0.83665
 Alpha  occ. eigenvalues --   -0.77841  -0.76807  -0.74177  -0.70620  -0.69445
 Alpha  occ. eigenvalues --   -0.68124  -0.67799  -0.67683  -0.66515  -0.64234
 Alpha  occ. eigenvalues --   -0.61976  -0.61455  -0.61162  -0.58869  -0.58345
 Alpha  occ. eigenvalues --   -0.56620  -0.55548  -0.52933  -0.52443  -0.49695
 Alpha  occ. eigenvalues --   -0.46328  -0.41434
 Alpha virt. eigenvalues --   -0.26347  -0.14803  -0.13869  -0.12517  -0.11288
 Alpha virt. eigenvalues --   -0.10140  -0.09421  -0.07860  -0.07666  -0.07542
 Alpha virt. eigenvalues --   -0.07285  -0.07038  -0.05665  -0.05531  -0.05459

 Mulliken charges:
               1
     1  C    0.151042
     2  C   -0.439436
     3  C   -0.441914
     4  C    0.018473
     5  C    0.134147
     6  C   -0.445729
     7  C   -0.403789
     8  C    0.006565
     9  C   -0.297219
    10  C    0.120117
    11  C   -0.503102
    12  C    0.412332
    13  C   -0.576703
    14  C    0.637678
    15  H    0.229795
    16  H    0.245633
    17  H    0.238893
    18  H    0.215116
    19  H    0.193525
    20  H    0.230919
    21  H    0.255740
    22  H    0.271268
    23  H    0.240982
    24  H    0.252834
    25  H    0.252834
 Sum of Mulliken charges =   1.00000

 Dipole moment (field-independent basis, Debye):
    X=              1.2913    Y=             -2.6116    Z=              0.0000  Tot=              2.9134
 Quadrupole moment (field-independent basis, Debye-Ang):
   XX=            -51.9097   YY=            -34.8263   ZZ=            -84.0451
   XY=             -9.8112   XZ=             -0.0000   YZ=              0.0000

 Normal termination of Gaussian 16 at Tue Aug  2 12:24:19 2022.
