 Gaussian 16, Revision C.01,
 Gaussian 16:  ES64L-G16RevC.01  3-Jul-2019

 ---------------------------------------------------------------
 #n M062X/6-311++G(d,p) TD(NStates=1) EmpiricalDispersion=GD3 SP
 ---------------------------------------------------------------

 ----
 SP_0
 ----
 Symbolic Z-matrix:
 Charge =  1 Multiplicity = 1

                         Standard orientation:
 ---------------------------------------------------------------------
 Center     Atomic      Atomic             Coordinates (Angstroms)
 Number     Number       Type             X           Y           Z
 ---------------------------------------------------------------------
      1          6           0        0.000000    2.544655    1.353694
      2          6           0        0.000000    3.725508    0.605252
      3          6           0        0.000000    3.663861   -0.780567
      4          6           0        0.000000    2.415156   -1.414275
      5          6           0       -0.000000   -2.415156   -1.414275
      6          6           0       -0.000000   -3.663861   -0.780567
      7          6           0       -0.000000   -3.725508    0.605252
      8          6           0       -0.000000   -2.544655    1.353694
      9          6           0       -0.000000   -0.000000    1.514632
     10          6           0        0.000000    0.000000   -1.367926
     11          6           0        0.000000    1.274055    0.730328
     12          6           0        0.000000    1.229471   -0.677541
     13          6           0       -0.000000   -1.274055    0.730328
     14          6           0       -0.000000   -1.229471   -0.677541
     15          1           0        0.000000    2.604071    2.436910
     16          1           0        0.000000    4.680753    1.108952
     17          1           0        0.000000    4.569262   -1.375086
     18          1           0        0.000000    2.359550   -2.496796
     19          1           0        0.000000    0.000000   -2.445003
     20          1           0       -0.000000   -2.359550   -2.496796
     21          1           0       -0.000000   -4.569262   -1.375086
     22          1           0       -0.000000   -4.680753    1.108952
     23          1           0       -0.000000   -2.604071    2.436910
     24          1           0       -0.859585    0.000000    2.207050
     25          1           0        0.859585   -0.000000    2.207050
 ---------------------------------------------------------------------

 SCF Done:  E(RM062X) =  -539.761390336     A.U. after   15 cycles

 Excitation energies and oscillator strengths:

 Excited State   1:      Singlet-A1     2.9230 eV  424.17 nm  f=0.0304  <S**2>=0.000
      47 -> 48         0.70374
 This state for optimization and/or second-order correction.
 Total Energy, E(TD-HF/TD-DFT) =  -539.653972040
 Copying the excited state density for this state as the 1-particle RhoCI density.

 The electronic state is 1-A1.
 Alpha  occ. eigenvalues --  -10.77119 -10.73526 -10.73526 -10.72123 -10.72121
 Alpha  occ. eigenvalues --  -10.71350 -10.71332 -10.71331 -10.71117 -10.71117
 Alpha  occ. eigenvalues --  -10.70248 -10.70248 -10.69661 -10.69661  -1.16431
 Alpha  occ. eigenvalues --   -1.12418  -1.06917  -1.05561  -1.01260  -1.00189
 Alpha  occ. eigenvalues --   -0.95731  -0.91021  -0.86433  -0.85904  -0.83799
 Alpha  occ. eigenvalues --   -0.78333  -0.75910  -0.74359  -0.69713  -0.69202
 Alpha  occ. eigenvalues --   -0.68364  -0.68096  -0.67859  -0.64543  -0.64062
 Alpha  occ. eigenvalues --   -0.63253  -0.61982  -0.60180  -0.59634  -0.59048
 Alpha  occ. eigenvalues --   -0.56852  -0.55185  -0.54899  -0.52384  -0.46635
 Alpha  occ. eigenvalues --   -0.45999  -0.44678
 Alpha virt. eigenvalues --   -0.25884  -0.14692  -0.14078  -0.12842  -0.11163
 Alpha virt. eigenvalues --   -0.10089  -0.09238  -0.07977  -0.07954  -0.07474
 Alpha virt. eigenvalues --   -0.07152  -0.07057  -0.05662  -0.05591  -0.05311

 Mulliken charges:
               1
     1  C    0.050746
     2  C   -0.381770
     3  C   -0.454588
     4  C    0.019447
     5  C    0.019447
     6  C   -0.454588
     7  C   -0.381770
     8  C    0.050746
     9  C   -0.413479
    10  C   -0.004837
    11  C   -0.542396
    12  C    0.712139
    13  C   -0.542396
    14  C    0.712139
    15  H    0.240916
    16  H    0.253477
    17  H    0.251046
    18  H    0.226017
    19  H    0.166406
    20  H    0.226017
    21  H    0.251046
    22  H    0.253477
    23  H    0.240916
    24  H    0.250923
    25  H    0.250923
 Sum of Mulliken charges =   1.00000

 Dipole moment (field-independent basis, Debye):
    X=             -0.0000    Y=              0.0000    Z=             -0.2224  Tot=              0.2224
 Quadrupole moment (field-independent basis, Debye-Ang):
   XX=            -84.1883   YY=            -30.7149   ZZ=            -56.3422
   XY=              0.0000   XZ=             -0.0000   YZ=              0.0000

 Normal termination of Gaussian 16 at Tue Aug  2 12:35:49 2022.
