 Gaussian 16, Revision C.01,
 Gaussian 16:  ES64L-G16RevC.01  3-Jul-2019

 ---------------------------------------------------------------
 #n M062X/6-311++G(d,p) TD(NStates=1) EmpiricalDispersion=GD3 SP
 ---------------------------------------------------------------

 ----
 SP_0
 ----
 Symbolic Z-matrix:
 Charge =  1 Multiplicity = 1

                         Standard orientation:
 ---------------------------------------------------------------------
 Center     Atomic      Atomic             Coordinates (Angstroms)
 Number     Number       Type             X           Y           Z
 ---------------------------------------------------------------------
      1          6           0        0.000000    2.414655   -1.370536
      2          6           0        0.000000    3.665508   -0.772094
      3          6           0        0.000000    3.713861    0.613725
      4          6           0        0.000000    2.535156    1.397433
      5          6           0       -0.000000   -2.535156    1.397433
      6          6           0       -0.000000   -3.713861    0.613725
      7          6           0       -0.000000   -3.665508   -0.772094
      8          6           0       -0.000000   -2.414655   -1.370536
      9          6           0       -0.000000    0.000000   -1.361474
     10          6           0        0.000000   -0.000000    1.521084
     11          6           0        0.000000    1.244055   -0.597170
     12          6           0        0.000000    1.249471    0.810699
     13          6           0       -0.000000   -1.244055   -0.597170
     14          6           0       -0.000000   -1.249471    0.810699
     15          1           0        0.000000    2.314071   -2.453752
     16          1           0        0.000000    4.570753   -1.365794
     17          1           0        0.000000    4.669262    1.118244
     18          1           0        0.000000    2.629550    2.479954
     19          1           0        0.000000   -0.000000    2.608161
     20          1           0       -0.000000   -2.629550    2.479954
     21          1           0       -0.000000   -4.669262    1.118244
     22          1           0       -0.000000   -4.570753   -1.365794
     23          1           0       -0.000000   -2.314071   -2.453752
     24          1           0        0.859585   -0.000000   -2.053892
     25          1           0       -0.859585    0.000000   -2.053892
 ---------------------------------------------------------------------

 SCF Done:  E(RM062X) =  -539.747997122     A.U. after   15 cycles

 Excitation energies and oscillator strengths:

 Excited State   1:      Singlet-A1     2.6496 eV  467.94 nm  f=0.0256  <S**2>=0.000
      47 -> 48         0.70492
 This state for optimization and/or second-order correction.
 Total Energy, E(TD-HF/TD-DFT) =  -539.650626679
 Copying the excited state density for this state as the 1-particle RhoCI density.

 The electronic state is 1-A1.
 Alpha  occ. eigenvalues --  -10.78461 -10.73018 -10.73015 -10.72910 -10.72910
 Alpha  occ. eigenvalues --  -10.71631 -10.71631 -10.70960 -10.70960 -10.70484
 Alpha  occ. eigenvalues --  -10.69801 -10.69801 -10.69729 -10.69729  -1.16453
 Alpha  occ. eigenvalues --   -1.12337  -1.06854  -1.05940  -1.01253  -1.00073
 Alpha  occ. eigenvalues --   -0.95707  -0.90955  -0.86363  -0.85899  -0.83648
 Alpha  occ. eigenvalues --   -0.78309  -0.76046  -0.74284  -0.69322  -0.69269
 Alpha  occ. eigenvalues --   -0.68707  -0.68508  -0.68212  -0.64818  -0.64446
 Alpha  occ. eigenvalues --   -0.62625  -0.61550  -0.59666  -0.59593  -0.59066
 Alpha  occ. eigenvalues --   -0.56977  -0.55276  -0.54564  -0.52440  -0.46527
 Alpha  occ. eigenvalues --   -0.46063  -0.44118
 Alpha virt. eigenvalues --   -0.26370  -0.14773  -0.14231  -0.12780  -0.11233
 Alpha virt. eigenvalues --   -0.10094  -0.09220  -0.08013  -0.08013  -0.07472
 Alpha virt. eigenvalues --   -0.07319  -0.07292  -0.05650  -0.05588  -0.05375

 Mulliken charges:
               1
     1  C   -0.051828
     2  C   -0.370298
     3  C   -0.429057
     4  C    0.192840
     5  C    0.192840
     6  C   -0.429057
     7  C   -0.370298
     8  C   -0.051828
     9  C   -0.334264
    10  C   -0.056679
    11  C   -0.323838
    12  C    0.350421
    13  C   -0.323838
    14  C    0.350421
    15  H    0.235394
    16  H    0.260853
    17  H    0.244642
    18  H    0.231491
    19  H    0.213430
    20  H    0.231491
    21  H    0.244642
    22  H    0.260853
    23  H    0.235394
    24  H    0.248137
    25  H    0.248137
 Sum of Mulliken charges =   1.00000

 Dipole moment (field-independent basis, Debye):
    X=             -0.0000    Y=              0.0000    Z=              0.1241  Tot=              0.1241
 Quadrupole moment (field-independent basis, Debye-Ang):
   XX=            -84.2410   YY=            -31.6845   ZZ=            -56.0316
   XY=              0.0000   XZ=              0.0000   YZ=              0.0000

 Normal termination of Gaussian 16 at Tue Aug  2 12:39:02 2022.
