 Gaussian 16, Revision C.01,
 Gaussian 16:  ES64L-G16RevC.01  3-Jul-2019

 ---------------------------------------------------------------
 #n M062X/6-311++G(d,p) TD(NStates=1) EmpiricalDispersion=GD3 SP
 ---------------------------------------------------------------

 ----
 SP_4
 ----
 Symbolic Z-matrix:
 Charge =  1 Multiplicity = 1

                         Standard orientation:
 ---------------------------------------------------------------------
 Center     Atomic      Atomic             Coordinates (Angstroms)
 Number     Number       Type             X           Y           Z
 ---------------------------------------------------------------------
      1          6           0        0.069239   -2.804949    0.000000
      2          6           0        1.316407   -3.450206    0.000000
      3          6           0        2.538217   -2.730898    0.000000
      4          6           0        2.518340   -1.446312    0.000000
      5          6           0       -0.001001    2.731600    0.000000
      6          6           0       -1.283694    3.545917    0.000000
      7          6           0       -2.490321    2.927371    0.000000
      8          6           0       -2.475178    1.542514    0.000000
      9          6           0       -1.296360   -0.722953    0.000000
     10          6           0        1.266196    0.605336    0.000000
     11          6           0        0.013970   -1.504121    0.000000
     12          6           0        1.252992   -0.738893    0.000000
     13          6           0       -1.191107    0.729125    0.000000
     14          6           0        0.000000    1.386166    0.000000
     15          1           0       -0.829560   -3.413733    0.000000
     16          1           0        1.340157   -4.531541    0.000000
     17          1           0        3.465998   -3.285633    0.000000
     18          1           0        3.417453   -0.839442    0.000000
     19          1           0        2.189414    1.164202    0.000000
     20          1           0        0.923981    3.294271    0.000000
     21          1           0       -1.184015    4.627833    0.000000
     22          1           0       -3.414580    3.481669    0.000000
     23          1           0       -3.401673    0.981053    0.000000
     24          1           0       -1.966689   -0.948424    0.859585
     25          1           0       -1.966689   -0.948424   -0.859585
 ---------------------------------------------------------------------

 SCF Done:  E(RM062X) =  -539.704252230     A.U. after   16 cycles

 Excitation energies and oscillator strengths:

 Excited State   1:      Singlet-A'     2.1819 eV  568.25 nm  f=0.0124  <S**2>=0.000
      47 -> 48         0.70318
 This state for optimization and/or second-order correction.
 Total Energy, E(TD-HF/TD-DFT) =  -539.624070339
 Copying the excited state density for this state as the 1-particle RhoCI density.

 The electronic state is 1-A'.
 Alpha  occ. eigenvalues --  -10.76661 -10.74674 -10.74249 -10.73103 -10.72263
 Alpha  occ. eigenvalues --  -10.71846 -10.71255 -10.70725 -10.70712 -10.70215
 Alpha  occ. eigenvalues --  -10.69797 -10.69471 -10.68898 -10.68443  -1.17235
 Alpha  occ. eigenvalues --   -1.12540  -1.07016  -1.06631  -1.01431  -1.01094
 Alpha  occ. eigenvalues --   -0.94824  -0.90798  -0.86526  -0.85722  -0.83721
 Alpha  occ. eigenvalues --   -0.77841  -0.76704  -0.74218  -0.70694  -0.69420
 Alpha  occ. eigenvalues --   -0.67901  -0.67876  -0.67563  -0.66303  -0.64087
 Alpha  occ. eigenvalues --   -0.61977  -0.61551  -0.61189  -0.59137  -0.58422
 Alpha  occ. eigenvalues --   -0.56582  -0.55623  -0.52859  -0.52411  -0.49848
 Alpha  occ. eigenvalues --   -0.46231  -0.41587
 Alpha virt. eigenvalues --   -0.26188  -0.14806  -0.13718  -0.12591  -0.11266
 Alpha virt. eigenvalues --   -0.10142  -0.09428  -0.07845  -0.07667  -0.07542
 Alpha virt. eigenvalues --   -0.07239  -0.06934  -0.05683  -0.05525  -0.05437

 Mulliken charges:
               1
     1  C    0.025402
     2  C   -0.382807
     3  C   -0.415229
     4  C    0.058683
     5  C   -0.064498
     6  C   -0.475102
     7  C   -0.396625
     8  C    0.123438
     9  C   -0.408910
    10  C   -0.003304
    11  C   -0.616902
    12  C    0.723700
    13  C   -0.462832
    14  C    0.677232
    15  H    0.244114
    16  H    0.268782
    17  H    0.257015
    18  H    0.232571
    19  H    0.173902
    20  H    0.216115
    21  H    0.242083
    22  H    0.242486
    23  H    0.234487
    24  H    0.253101
    25  H    0.253101
 Sum of Mulliken charges =   1.00000

 Dipole moment (field-independent basis, Debye):
    X=              1.5362    Y=             -2.5172    Z=              0.0000  Tot=              2.9490
 Quadrupole moment (field-independent basis, Debye-Ang):
   XX=            -48.8652   YY=            -37.5414   ZZ=            -84.0456
   XY=            -12.0211   XZ=             -0.0000   YZ=             -0.0000

 Normal termination of Gaussian 16 at Tue Aug  2 12:50:15 2022.
