 Gaussian 16, Revision C.01,
 Gaussian 16:  ES64L-G16RevC.01  3-Jul-2019

 ---------------------------------------------------------------
 #n M062X/6-311++G(d,p) TD(NStates=1) EmpiricalDispersion=GD3 SP
 ---------------------------------------------------------------

 -----
 SP_-2
 -----
 Symbolic Z-matrix:
 Charge =  1 Multiplicity = 1

                         Standard orientation:
 ---------------------------------------------------------------------
 Center     Atomic      Atomic             Coordinates (Angstroms)
 Number     Number       Type             X           Y           Z
 ---------------------------------------------------------------------
      1          6           0        0.084877    2.844852    0.000000
      2          6           0       -1.043442    3.647843    0.000000
      3          6           0       -2.258617    3.015435    0.000000
      4          6           0       -2.345507    1.552869    0.000000
      5          6           0       -0.121718   -2.896801    0.000000
      6          6           0        1.029409   -3.600563    0.000000
      7          6           0        2.269173   -2.945902    0.000000
      8          6           0        2.318632   -1.553772    0.000000
      9          6           0        1.261550    0.657961    0.000000
     10          6           0       -1.275082   -0.713213    0.000000
     11          6           0        0.000000    1.387913    0.000000
     12          6           0       -1.227278    0.748307    0.000000
     13          6           0        1.176690   -0.832005    0.000000
     14          6           0       -0.106592   -1.467338    0.000000
     15          1           0        1.077217    3.283087    0.000000
     16          1           0       -0.966912    4.724423    0.000000
     17          1           0       -3.181814    3.577768    0.000000
     18          1           0       -3.336236    1.112996    0.000000
     19          1           0       -2.244394   -1.196487    0.000000
     20          1           0       -1.081301   -3.398007    0.000000
     21          1           0        1.003223   -4.680912    0.000000
     22          1           0        3.187153   -3.517440    0.000000
     23          1           0        3.277843   -1.050298    0.000000
     24          1           0        1.846320    1.035677    0.859585
     25          1           0        1.846320    1.035677   -0.859585
 ---------------------------------------------------------------------

 SCF Done:  E(RM062X) =  -539.743741269     A.U. after   16 cycles

 Excitation energies and oscillator strengths:

 Excited State   1:      Singlet-A'     2.4985 eV  496.23 nm  f=0.0165  <S**2>=0.000
      47 -> 48         0.70332
 This state for optimization and/or second-order correction.
 Total Energy, E(TD-HF/TD-DFT) =  -539.651921522
 Copying the excited state density for this state as the 1-particle RhoCI density.

 The electronic state is 1-A'.
 Alpha  occ. eigenvalues --  -10.77747 -10.73812 -10.73150 -10.72516 -10.72375
 Alpha  occ. eigenvalues --  -10.72001 -10.71894 -10.70829 -10.70705 -10.70191
 Alpha  occ. eigenvalues --  -10.69994 -10.69622 -10.69541 -10.69248  -1.16647
 Alpha  occ. eigenvalues --   -1.12482  -1.06903  -1.06055  -1.01280  -1.00604
 Alpha  occ. eigenvalues --   -0.95417  -0.90979  -0.86461  -0.85854  -0.83749
 Alpha  occ. eigenvalues --   -0.78240  -0.76297  -0.74291  -0.69949  -0.69317
 Alpha  occ. eigenvalues --   -0.68246  -0.68199  -0.67959  -0.65618  -0.64313
 Alpha  occ. eigenvalues --   -0.62477  -0.61339  -0.60627  -0.59295  -0.59003
 Alpha  occ. eigenvalues --   -0.56854  -0.55463  -0.54093  -0.52448  -0.47776
 Alpha  occ. eigenvalues --   -0.46193  -0.43191
 Alpha virt. eigenvalues --   -0.26225  -0.14724  -0.14052  -0.12712  -0.11217
 Alpha virt. eigenvalues --   -0.10101  -0.09284  -0.07947  -0.07874  -0.07496
 Alpha virt. eigenvalues --   -0.07251  -0.07168  -0.05647  -0.05566  -0.05379

 Mulliken charges:
               1
     1  C    0.093883
     2  C   -0.427229
     3  C   -0.448113
     4  C    0.076847
     5  C    0.138526
     6  C   -0.452684
     7  C   -0.404474
     8  C    0.014999
     9  C   -0.256068
    10  C    0.127553
    11  C   -0.525556
    12  C    0.409726
    13  C   -0.545992
    14  C    0.572803
    15  H    0.231058
    16  H    0.251589
    17  H    0.243353
    18  H    0.218853
    19  H    0.197894
    20  H    0.227756
    21  H    0.252036
    22  H    0.264804
    23  H    0.237722
    24  H    0.250358
    25  H    0.250358
 Sum of Mulliken charges =   1.00000

 Dipole moment (field-independent basis, Debye):
    X=              0.5692    Y=             -1.4012    Z=              0.0000  Tot=              1.5124
 Quadrupole moment (field-independent basis, Debye-Ang):
   XX=            -51.4452   YY=            -35.8642   ZZ=            -84.1253
   XY=             -9.8929   XZ=             -0.0000   YZ=             -0.0000

 Normal termination of Gaussian 16 at Tue Aug  2 12:32:09 2022.
