 Gaussian 16, Revision C.01,
 Gaussian 16:  ES64L-G16RevC.01  3-Jul-2019

 ---------------------------------------------------------------
 #n M062X/6-311++G(d,p) TD(NStates=1) EmpiricalDispersion=GD3 SP
 ---------------------------------------------------------------

 ------
 SP_-14
 ------
 Symbolic Z-matrix:
 Charge =  1 Multiplicity = 1

                         Standard orientation:
 ---------------------------------------------------------------------
 Center     Atomic      Atomic             Coordinates (Angstroms)
 Number     Number       Type             X           Y           Z
 ---------------------------------------------------------------------
      1          6           0        0.164130    3.008528    0.000000
      2          6           0       -0.840464    3.932662    0.000000
      3          6           0       -1.956971    3.307503    0.000000
      4          6           0       -2.071114    1.494716    0.000000
      5          6           0       -0.269483   -3.147275    0.000000
      6          6           0        0.613245   -3.633183    0.000000
      7          6           0        1.931207   -2.909699    0.000000
      8          6           0        2.154188   -1.505585    0.000000
      9          6           0        1.258269    0.672763    0.000000
     10          6           0       -1.170393   -0.964022    0.000000
     11          6           0        0.000000    1.230648    0.000000
     12          6           0       -1.128631    0.717150    0.000000
     13          6           0        1.295194   -0.943757    0.000000
     14          6           0       -0.152653   -1.566105    0.000000
     15          1           0        1.232182    3.271099    0.000000
     16          1           0       -0.716200    4.998610    0.000000
     17          1           0       -2.963060    3.763832    0.000000
     18          1           0       -3.137647    1.230421    0.000000
     19          1           0       -2.184028   -1.349685    0.000000
     20          1           0       -1.308267   -3.474512    0.000000
     21          1           0        0.720514   -4.730560    0.000000
     22          1           0        2.827564   -3.525704    0.000000
     23          1           0        3.192725   -1.176064    0.000000
     24          1           0        1.688540    1.413253    0.859585
     25          1           0        1.688540    1.413253   -0.859585
 ---------------------------------------------------------------------

 SCF Done:  E(RM062X) =  -538.889864116     A.U. after   19 cycles

 Excitation energies and oscillator strengths:

 Excited State   1:      Singlet-A'     1.0550 eV 1175.20 nm  f=0.1155  <S**2>=0.000
      47 -> 48         0.73416
      47 <- 48        -0.22492
 This state for optimization and/or second-order correction.
 Total Energy, E(TD-HF/TD-DFT) =  -538.851093399
 Copying the excited state density for this state as the 1-particle RhoCI density.

 The electronic state is 1-A'.
 Alpha  occ. eigenvalues --  -10.78183 -10.73483 -10.72372 -10.71410 -10.71215
 Alpha  occ. eigenvalues --  -10.70898 -10.70766 -10.69619 -10.69347 -10.69174
 Alpha  occ. eigenvalues --  -10.68836 -10.67938 -10.67566 -10.66975  -1.21142
 Alpha  occ. eigenvalues --   -1.14135  -1.13476  -1.07080  -1.04373  -1.02217
 Alpha  occ. eigenvalues --   -0.95765  -0.87754  -0.85915  -0.84731  -0.82608
 Alpha  occ. eigenvalues --   -0.77117  -0.76312  -0.74571  -0.73868  -0.70123
 Alpha  occ. eigenvalues --   -0.69746  -0.68921  -0.67162  -0.64395  -0.63932
 Alpha  occ. eigenvalues --   -0.63043  -0.62249  -0.60036  -0.58469  -0.56994
 Alpha  occ. eigenvalues --   -0.55425  -0.54229  -0.53041  -0.50739  -0.49322
 Alpha  occ. eigenvalues --   -0.46371  -0.35197
 Alpha virt. eigenvalues --   -0.27223  -0.17053  -0.11449  -0.10845  -0.10370
 Alpha virt. eigenvalues --   -0.09884  -0.08385  -0.07935  -0.07709  -0.07323
 Alpha virt. eigenvalues --   -0.07058  -0.06123  -0.05970  -0.05663  -0.05289

 Mulliken charges:
               1
     1  C    0.319643
     2  C   -0.526866
     3  C   -0.279211
     4  C   -0.200130
     5  C   -0.085677
     6  C   -0.345098
     7  C   -0.532737
     8  C   -0.060758
     9  C   -0.436122
    10  C   -0.146317
    11  C    0.336466
    12  C    0.619050
    13  C   -0.836030
    14  C    0.542032
    15  H    0.232109
    16  H    0.241129
    17  H    0.242101
    18  H    0.217874
    19  H    0.156056
    20  H    0.226273
    21  H    0.257654
    22  H    0.273530
    23  H    0.237149
    24  H    0.273940
    25  H    0.273940
 Sum of Mulliken charges =   1.00000

 Dipole moment (field-independent basis, Debye):
    X=              2.7642    Y=             -3.3766    Z=             -0.0000  Tot=              4.3637
 Quadrupole moment (field-independent basis, Debye-Ang):
   XX=            -54.0148   YY=            -28.4631   ZZ=            -82.8063
   XY=             -9.6708   XZ=             -0.0000   YZ=             -0.0000

 Normal termination of Gaussian 16 at Tue Aug  2 11:43:53 2022.
