 Gaussian 16, Revision C.01,
 Gaussian 16:  ES64L-G16RevC.01  3-Jul-2019

 ---------------------------------------------------------------
 #n M062X/6-311++G(d,p) TD(NStates=1) EmpiricalDispersion=GD3 SP
 ---------------------------------------------------------------

 -----
 SP_-2
 -----
 Symbolic Z-matrix:
 Charge =  1 Multiplicity = 1

                         Standard orientation:
 ---------------------------------------------------------------------
 Center     Atomic      Atomic             Coordinates (Angstroms)
 Number     Number       Type             X           Y           Z
 ---------------------------------------------------------------------
      1          6           0        2.491072   -1.462573    0.000000
      2          6           0        3.718267   -0.810907    0.000000
      3          6           0        3.717985    0.560124    0.000000
      4          6           0        2.454851    1.293325    0.000000
      5          6           0       -2.417850    1.529411    0.000000
      6          6           0       -3.620625    0.931505    0.000000
      7          6           0       -3.700907   -0.468181    0.000000
      8          6           0       -2.541826   -1.251806    0.000000
      9          6           0       -0.046674   -1.483347    0.000000
     10          6           0        0.000000    1.399783    0.000000
     11          6           0        1.219869   -0.733379    0.000000
     12          6           0        1.243218    0.650725    0.000000
     13          6           0       -1.315861   -0.671227    0.000000
     14          6           0       -1.221396    0.757941    0.000000
     15          1           0        2.451161   -2.545067    0.000000
     16          1           0        4.640939   -1.369702    0.000000
     17          1           0        4.641892    1.126482    0.000000
     18          1           0        2.496542    2.375049    0.000000
     19          1           0        0.053143    2.477581    0.000000
     20          1           0       -2.324991    2.608992    0.000000
     21          1           0       -4.528260    1.518514    0.000000
     22          1           0       -4.667236   -0.951872    0.000000
     23          1           0       -2.636522   -2.332006    0.000000
     24          1           0       -0.003709   -2.178171    0.859585
     25          1           0       -0.003709   -2.178171   -0.859585
 ---------------------------------------------------------------------

 SCF Done:  E(RM062X) =  -539.747455544     A.U. after   15 cycles

 Excitation energies and oscillator strengths:

 Excited State   1:      Singlet-A'     2.5937 eV  478.03 nm  f=0.0167  <S**2>=0.000
      47 -> 48         0.70330
 This state for optimization and/or second-order correction.
 Total Energy, E(TD-HF/TD-DFT) =  -539.652140586
 Copying the excited state density for this state as the 1-particle RhoCI density.

 The electronic state is 1-A'.
 Alpha  occ. eigenvalues --  -10.77207 -10.74091 -10.72802 -10.72610 -10.72602
 Alpha  occ. eigenvalues --  -10.71913 -10.71560 -10.71183 -10.70603 -10.70425
 Alpha  occ. eigenvalues --  -10.69970 -10.69777 -10.69638 -10.69256  -1.16645
 Alpha  occ. eigenvalues --   -1.12480  -1.06914  -1.05924  -1.01254  -1.00623
 Alpha  occ. eigenvalues --   -0.95378  -0.91019  -0.86464  -0.85860  -0.83791
 Alpha  occ. eigenvalues --   -0.78226  -0.76216  -0.74302  -0.70048  -0.69298
 Alpha  occ. eigenvalues --   -0.68132  -0.67947  -0.67934  -0.65510  -0.64164
 Alpha  occ. eigenvalues --   -0.62540  -0.61525  -0.60739  -0.59335  -0.59078
 Alpha  occ. eigenvalues --   -0.56803  -0.55527  -0.54089  -0.52415  -0.47894
 Alpha  occ. eigenvalues --   -0.46109  -0.43363
 Alpha virt. eigenvalues --   -0.26037  -0.14720  -0.13971  -0.12762  -0.11194
 Alpha virt. eigenvalues --   -0.10101  -0.09292  -0.07936  -0.07863  -0.07493
 Alpha virt. eigenvalues --   -0.07193  -0.07071  -0.05660  -0.05567  -0.05355

 Mulliken charges:
               1
     1  C    0.100839
     2  C   -0.394840
     3  C   -0.460042
     4  C   -0.032578
     5  C    0.038257
     6  C   -0.428816
     7  C   -0.388094
     8  C    0.050049
     9  C   -0.394314
    10  C    0.023420
    11  C   -0.552014
    12  C    0.702699
    13  C   -0.612854
    14  C    0.732411
    15  H    0.236605
    16  H    0.248160
    17  H    0.245868
    18  H    0.219229
    19  H    0.178024
    20  H    0.228166
    21  H    0.253690
    22  H    0.261851
    23  H    0.241860
    24  H    0.251212
    25  H    0.251212
 Sum of Mulliken charges =   1.00000

 Dipole moment (field-independent basis, Debye):
    X=             -1.5122    Y=              0.2305    Z=             -0.0000  Tot=              1.5296
 Quadrupole moment (field-independent basis, Debye-Ang):
   XX=            -30.7518   YY=            -56.2629   ZZ=            -84.1269
   XY=             -1.5548   XZ=              0.0000   YZ=             -0.0000

 Normal termination of Gaussian 16 at Tue Aug  2 12:29:52 2022.
