 Gaussian 16, Revision C.01,
 Gaussian 16:  ES64L-G16RevC.01  3-Jul-2019

 ---------------------------------------------------------------
 #n M062X/6-311++G(d,p) TD(NStates=1) EmpiricalDispersion=GD3 SP
 ---------------------------------------------------------------

 -----
 SP_14
 -----
 Symbolic Z-matrix:
 Charge =  1 Multiplicity = 1

                         Standard orientation:
 ---------------------------------------------------------------------
 Center     Atomic      Atomic             Coordinates (Angstroms)
 Number     Number       Type             X           Y           Z
 ---------------------------------------------------------------------
      1          6           0       -2.221730   -1.479613    0.000000
      2          6           0       -1.981444   -2.891506    0.000000
      3          6           0       -0.670269   -3.620709    0.000000
      4          6           0        0.186953   -3.114443    0.000000
      5          6           0        2.106969    1.375729    0.000000
      6          6           0        2.122061    3.190504    0.000000
      7          6           0        1.047077    3.893684    0.000000
      8          6           0       -0.030857    3.056307    0.000000
      9          6           0       -1.289309    0.742704    0.000000
     10          6           0        1.081040   -0.977445    0.000000
     11          6           0       -1.380371   -0.885843    0.000000
     12          6           0        0.053685   -1.540093    0.000000
     13          6           0        0.000000    1.263876    0.000000
     14          6           0        1.101417    0.693480    0.000000
     15          1           0       -3.276031   -1.171849    0.000000
     16          1           0       -2.874938   -3.509674    0.000000
     17          1           0       -0.774471   -4.711346    0.000000
     18          1           0        1.239841   -3.423534    0.000000
     19          1           0        2.077067   -1.396341    0.000000
     20          1           0        3.137583    1.020523    0.000000
     21          1           0        3.167110    3.577947    0.000000
     22          1           0        1.001025    4.965657    0.000000
     23          1           0       -1.061310    3.413445    0.000000
     24          1           0       -1.693602    1.497691    0.859585
     25          1           0       -1.693602    1.497691   -0.859585
 ---------------------------------------------------------------------

 SCF Done:  E(RM062X) =  -538.869575447     A.U. after   19 cycles

 Excitation energies and oscillator strengths:

 Excited State   1:      Singlet-A'     0.9931 eV 1248.44 nm  f=0.1028  <S**2>=0.000
      47 -> 48         0.73472
      47 <- 48        -0.22279
 This state for optimization and/or second-order correction.
 Total Energy, E(TD-HF/TD-DFT) =  -538.833079166
 Copying the excited state density for this state as the 1-particle RhoCI density.

 The electronic state is 1-A'.
 Alpha  occ. eigenvalues --  -10.78714 -10.73857 -10.72757 -10.71290 -10.70771
 Alpha  occ. eigenvalues --  -10.70631 -10.70433 -10.69627 -10.69517 -10.69498
 Alpha  occ. eigenvalues --  -10.68362 -10.67961 -10.67086 -10.66821  -1.21297
 Alpha  occ. eigenvalues --   -1.14302  -1.13372  -1.07104  -1.04123  -1.01824
 Alpha  occ. eigenvalues --   -0.95958  -0.87798  -0.85905  -0.84675  -0.82747
 Alpha  occ. eigenvalues --   -0.76937  -0.76389  -0.74796  -0.73908  -0.69961
 Alpha  occ. eigenvalues --   -0.69682  -0.68932  -0.67070  -0.64567  -0.63920
 Alpha  occ. eigenvalues --   -0.62720  -0.62207  -0.60244  -0.58321  -0.57055
 Alpha  occ. eigenvalues --   -0.55583  -0.54116  -0.52924  -0.50919  -0.49117
 Alpha  occ. eigenvalues --   -0.46154  -0.35249
 Alpha virt. eigenvalues --   -0.27432  -0.16850  -0.11449  -0.10565  -0.10433
 Alpha virt. eigenvalues --   -0.09955  -0.08389  -0.07924  -0.07774  -0.07318
 Alpha virt. eigenvalues --   -0.07099  -0.06152  -0.05979  -0.05549  -0.05227

 Mulliken charges:
               1
     1  C   -0.045091
     2  C   -0.456534
     3  C   -0.341069
     4  C   -0.038409
     5  C   -0.215014
     6  C   -0.340440
     7  C   -0.484586
     8  C    0.237190
     9  C   -0.424803
    10  C   -0.128104
    11  C   -0.720983
    12  C    0.531384
    13  C    0.212894
    14  C    0.599491
    15  H    0.238149
    16  H    0.273437
    17  H    0.258834
    18  H    0.234893
    19  H    0.131800
    20  H    0.213309
    21  H    0.245879
    22  H    0.238840
    23  H    0.227849
    24  H    0.275540
    25  H    0.275540
 Sum of Mulliken charges =   1.00000

 Dipole moment (field-independent basis, Debye):
    X=             -3.0033    Y=             -3.6643    Z=              0.0000  Tot=              4.7378
 Quadrupole moment (field-independent basis, Debye-Ang):
   XX=            -53.3121   YY=            -28.4619   ZZ=            -82.7853
   XY=             10.8723   XZ=              0.0000   YZ=              0.0000

 Normal termination of Gaussian 16 at Tue Aug  2 13:31:23 2022.
