 Gaussian 16, Revision C.01,
 Gaussian 16:  ES64L-G16RevC.01  3-Jul-2019

 ---------------------------------------------------------------
 #n M062X/6-311++G(d,p) TD(NStates=1) EmpiricalDispersion=GD3 SP
 ---------------------------------------------------------------

 ------
 SP_-10
 ------
 Symbolic Z-matrix:
 Charge =  1 Multiplicity = 1

                         Standard orientation:
 ---------------------------------------------------------------------
 Center     Atomic      Atomic             Coordinates (Angstroms)
 Number     Number       Type             X           Y           Z
 ---------------------------------------------------------------------
      1          6           0        0.259884    2.902594    0.000000
      2          6           0       -0.712844    3.870917    0.000000
      3          6           0       -1.899185    3.323659    0.000000
      4          6           0       -2.122218    1.634475    0.000000
      5          6           0       -0.293563   -3.097299    0.000000
      6          6           0        0.700852   -3.641488    0.000000
      7          6           0        1.996854   -2.942814    0.000000
      8          6           0        2.141965   -1.544878    0.000000
      9          6           0        1.223757    0.601652    0.000000
     10          6           0       -1.286690   -0.862486    0.000000
     11          6           0        0.000000    1.250050    0.000000
     12          6           0       -1.188152    0.753129    0.000000
     13          6           0        1.172273   -0.955594    0.000000
     14          6           0       -0.232682   -1.556024    0.000000
     15          1           0        1.339523    3.130812    0.000000
     16          1           0       -0.528088    4.932067    0.000000
     17          1           0       -2.833906    3.878662    0.000000
     18          1           0       -3.198804    1.400827    0.000000
     19          1           0       -2.303404   -1.249304    0.000000
     20          1           0       -1.296574   -3.504808    0.000000
     21          1           0        0.768671   -4.737083    0.000000
     22          1           0        2.905614   -3.541210    0.000000
     23          1           0        3.143204   -1.131398    0.000000
     24          1           0        1.721128    1.203037    0.859585
     25          1           0        1.721128    1.203037   -0.859585
 ---------------------------------------------------------------------

 SCF Done:  E(RM062X) =  -539.368881801     A.U. after   17 cycles

 Excitation energies and oscillator strengths:

 Excited State   1:      Singlet-A'     1.1756 eV 1054.66 nm  f=0.0666  <S**2>=0.000
      47 -> 48         0.70648
 This state for optimization and/or second-order correction.
 Total Energy, E(TD-HF/TD-DFT) =  -539.325679839
 Copying the excited state density for this state as the 1-particle RhoCI density.

 The electronic state is 1-A'.
 Alpha  occ. eigenvalues --  -10.77773 -10.74371 -10.74360 -10.73177 -10.71511
 Alpha  occ. eigenvalues --  -10.71270 -10.70647 -10.70189 -10.69956 -10.69564
 Alpha  occ. eigenvalues --  -10.69059 -10.68658 -10.68605 -10.66710  -1.19784
 Alpha  occ. eigenvalues --   -1.13122  -1.11079  -1.06629  -1.03011  -1.01640
 Alpha  occ. eigenvalues --   -0.95585  -0.88307  -0.86288  -0.84689  -0.83497
 Alpha  occ. eigenvalues --   -0.77893  -0.76450  -0.74377  -0.72541  -0.69787
 Alpha  occ. eigenvalues --   -0.69082  -0.68414  -0.66791  -0.64991  -0.63910
 Alpha  occ. eigenvalues --   -0.63196  -0.63054  -0.60074  -0.57757  -0.56244
 Alpha  occ. eigenvalues --   -0.55408  -0.54283  -0.53078  -0.52504  -0.49200
 Alpha  occ. eigenvalues --   -0.47663  -0.36893
 Alpha virt. eigenvalues --   -0.27007  -0.15669  -0.12881  -0.11570  -0.10380
 Alpha virt. eigenvalues --   -0.10287  -0.09766  -0.07857  -0.07665  -0.07547
 Alpha virt. eigenvalues --   -0.07328  -0.06173  -0.05770  -0.05539  -0.05478

 Mulliken charges:
               1
     1  C    0.200507
     2  C   -0.381184
     3  C   -0.301440
     4  C   -0.114082
     5  C    0.047528
     6  C   -0.397031
     7  C   -0.379134
     8  C   -0.055555
     9  C   -0.527299
    10  C   -0.202597
    11  C    0.287493
    12  C    0.608495
    13  C   -0.908547
    14  C    0.459930
    15  H    0.234308
    16  H    0.242130
    17  H    0.232692
    18  H    0.218356
    19  H    0.192799
    20  H    0.235064
    21  H    0.258377
    22  H    0.284074
    23  H    0.242487
    24  H    0.261314
    25  H    0.261314
 Sum of Mulliken charges =   1.00000

 Dipole moment (field-independent basis, Debye):
    X=              2.6913    Y=             -4.3613    Z=              0.0000  Tot=              5.1248
 Quadrupole moment (field-independent basis, Debye-Ang):
   XX=            -53.7611   YY=            -30.5513   ZZ=            -83.5794
   XY=             -8.9872   XZ=              0.0000   YZ=             -0.0000

 Normal termination of Gaussian 16 at Tue Aug  2 12:02:52 2022.
