 Gaussian 16, Revision C.01,
 Gaussian 16:  ES64L-G16RevC.01  3-Jul-2019

 ---------------------------------------------------------------
 #n M062X/6-311++G(d,p) TD(NStates=1) EmpiricalDispersion=GD3 SP
 ---------------------------------------------------------------

 ----
 SP_0
 ----
 Symbolic Z-matrix:
 Charge =  1 Multiplicity = 1

                         Standard orientation:
 ---------------------------------------------------------------------
 Center     Atomic      Atomic             Coordinates (Angstroms)
 Number     Number       Type             X           Y           Z
 ---------------------------------------------------------------------
      1          6           0        0.000000    2.570655    1.350326
      2          6           0        0.000000    3.737508    0.571884
      3          6           0        0.000000    3.653861   -0.813935
      4          6           0        0.000000    2.391156   -1.417643
      5          6           0       -0.000000   -2.391156   -1.417643
      6          6           0       -0.000000   -3.653861   -0.813935
      7          6           0       -0.000000   -3.737508    0.571884
      8          6           0       -0.000000   -2.570655    1.350326
      9          6           0       -0.000000   -0.000000    1.545264
     10          6           0        0.000000    0.000000   -1.337294
     11          6           0        0.000000    1.280055    0.756960
     12          6           0        0.000000    1.225471   -0.650909
     13          6           0       -0.000000   -1.280055    0.756960
     14          6           0       -0.000000   -1.225471   -0.650909
     15          1           0        0.000000    2.662071    2.433542
     16          1           0        0.000000    4.702753    1.057584
     17          1           0        0.000000    4.549262   -1.426454
     18          1           0        0.000000    2.305550   -2.500164
     19          1           0        0.000000    0.000000   -2.412371
     20          1           0       -0.000000   -2.305550   -2.500164
     21          1           0       -0.000000   -4.549262   -1.426454
     22          1           0       -0.000000   -4.702753    1.057584
     23          1           0       -0.000000   -2.662071    2.433542
     24          1           0       -0.859585    0.000000    2.237682
     25          1           0        0.859585   -0.000000    2.237682
 ---------------------------------------------------------------------

 SCF Done:  E(RM062X) =  -539.759843239     A.U. after   15 cycles

 Excitation energies and oscillator strengths:

 Excited State   1:      Singlet-A1     2.9684 eV  417.68 nm  f=0.0312  <S**2>=0.000
      47 -> 48         0.70345
 This state for optimization and/or second-order correction.
 Total Energy, E(TD-HF/TD-DFT) =  -539.650756363
 Copying the excited state density for this state as the 1-particle RhoCI density.

 The electronic state is 1-A1.
 Alpha  occ. eigenvalues --  -10.76841 -10.73690 -10.73690 -10.71986 -10.71984
 Alpha  occ. eigenvalues --  -10.71546 -10.71355 -10.71355 -10.71199 -10.71199
 Alpha  occ. eigenvalues --  -10.70433 -10.70433 -10.69705 -10.69705  -1.16423
 Alpha  occ. eigenvalues --   -1.12353  -1.06875  -1.05468  -1.01205  -1.00169
 Alpha  occ. eigenvalues --   -0.95676  -0.90973  -0.86434  -0.85903  -0.83752
 Alpha  occ. eigenvalues --   -0.78262  -0.75819  -0.74284  -0.69783  -0.69179
 Alpha  occ. eigenvalues --   -0.68281  -0.68025  -0.67744  -0.64410  -0.63920
 Alpha  occ. eigenvalues --   -0.63307  -0.62009  -0.60255  -0.59581  -0.59007
 Alpha  occ. eigenvalues --   -0.56837  -0.55173  -0.54887  -0.52341  -0.46624
 Alpha  occ. eigenvalues --   -0.45953  -0.44743
 Alpha virt. eigenvalues --   -0.25778  -0.14731  -0.14090  -0.12897  -0.11160
 Alpha virt. eigenvalues --   -0.10093  -0.09241  -0.07977  -0.07947  -0.07475
 Alpha virt. eigenvalues --   -0.07135  -0.07015  -0.05678  -0.05599  -0.05303

 Mulliken charges:
               1
     1  C    0.023682
     2  C   -0.373192
     3  C   -0.466155
     4  C    0.041753
     5  C    0.041753
     6  C   -0.466155
     7  C   -0.373192
     8  C    0.023682
     9  C   -0.427397
    10  C   -0.029484
    11  C   -0.493246
    12  C    0.691890
    13  C   -0.493246
    14  C    0.691890
    15  H    0.242928
    16  H    0.252330
    17  H    0.252391
    18  H    0.229609
    19  H    0.150635
    20  H    0.229609
    21  H    0.252391
    22  H    0.252330
    23  H    0.242928
    24  H    0.251131
    25  H    0.251131
 Sum of Mulliken charges =   1.00000

 Dipole moment (field-independent basis, Debye):
    X=             -0.0000    Y=              0.0000    Z=             -0.2382  Tot=              0.2382
 Quadrupole moment (field-independent basis, Debye-Ang):
   XX=            -84.2449   YY=            -30.5060   ZZ=            -56.3578
   XY=              0.0000   XZ=              0.0000   YZ=              0.0000

 Normal termination of Gaussian 16 at Tue Aug  2 12:35:11 2022.
