 Gaussian 16, Revision C.01,
 Gaussian 16:  ES64L-G16RevC.01  3-Jul-2019

 ---------------------------------------------------------------
 #n M062X/6-311++G(d,p) TD(NStates=1) EmpiricalDispersion=GD3 SP
 ---------------------------------------------------------------

 -----
 SP_-2
 -----
 Symbolic Z-matrix:
 Charge =  1 Multiplicity = 1

                         Standard orientation:
 ---------------------------------------------------------------------
 Center     Atomic      Atomic             Coordinates (Angstroms)
 Number     Number       Type             X           Y           Z
 ---------------------------------------------------------------------
      1          6           0        2.515823   -1.462651    0.000000
      2          6           0        3.730922   -0.781563    0.000000
      3          6           0        3.709944    0.590410    0.000000
      4          6           0        2.432227    1.295419    0.000000
      5          6           0       -2.392295    1.534012    0.000000
      6          6           0       -3.608333    0.967804    0.000000
      7          6           0       -3.711905   -0.430865    0.000000
      8          6           0       -2.568829   -1.244949    0.000000
      9          6           0       -0.049373   -1.513906    0.000000
     10          6           0        0.000000    1.369179    0.000000
     11          6           0        1.224038   -0.761385    0.000000
     12          6           0        1.238691    0.623125    0.000000
     13          6           0       -1.323622   -0.696346    0.000000
     14          6           0       -1.217829    0.732305    0.000000
     15          1           0        2.506868   -2.546476    0.000000
     16          1           0        4.663832   -1.323665    0.000000
     17          1           0        4.625160    1.174313    0.000000
     18          1           0        2.444958    2.378387    0.000000
     19          1           0        0.054066    2.444928    0.000000
     20          1           0       -2.268454    2.612223    0.000000
     21          1           0       -4.504657    1.573218    0.000000
     22          1           0       -4.687907   -0.895240    0.000000
     23          1           0       -2.696506   -2.323691    0.000000
     24          1           0       -0.007058   -2.208770    0.859585
     25          1           0       -0.007058   -2.208770   -0.859585
 ---------------------------------------------------------------------

 SCF Done:  E(RM062X) =  -539.747322131     A.U. after   15 cycles

 Excitation energies and oscillator strengths:

 Excited State   1:      Singlet-A'     2.6376 eV  470.07 nm  f=0.0167  <S**2>=0.000
      47 -> 48         0.70328
 This state for optimization and/or second-order correction.
 Total Energy, E(TD-HF/TD-DFT) =  -539.650393588
 Copying the excited state density for this state as the 1-particle RhoCI density.

 The electronic state is 1-A'.
 Alpha  occ. eigenvalues --  -10.76932 -10.74252 -10.72739 -10.72678 -10.72646
 Alpha  occ. eigenvalues --  -10.71911 -10.71414 -10.71372 -10.70596 -10.70589
 Alpha  occ. eigenvalues --  -10.69986 -10.69914 -10.69705 -10.69290  -1.16638
 Alpha  occ. eigenvalues --   -1.12443  -1.06893  -1.05846  -1.01211  -1.00614
 Alpha  occ. eigenvalues --   -0.95331  -0.91009  -0.86461  -0.85857  -0.83775
 Alpha  occ. eigenvalues --   -0.78185  -0.76138  -0.74267  -0.70095  -0.69273
 Alpha  occ. eigenvalues --   -0.68077  -0.67900  -0.67828  -0.65417  -0.64053
 Alpha  occ. eigenvalues --   -0.62534  -0.61598  -0.60778  -0.59329  -0.59089
 Alpha  occ. eigenvalues --   -0.56784  -0.55543  -0.54065  -0.52384  -0.47927
 Alpha  occ. eigenvalues --   -0.46056  -0.43429
 Alpha virt. eigenvalues --   -0.25939  -0.14744  -0.13951  -0.12809  -0.11188
 Alpha virt. eigenvalues --   -0.10103  -0.09295  -0.07934  -0.07860  -0.07494
 Alpha virt. eigenvalues --   -0.07172  -0.07026  -0.05673  -0.05572  -0.05346

 Mulliken charges:
               1
     1  C    0.072560
     2  C   -0.384309
     3  C   -0.473037
     4  C   -0.021630
     5  C    0.059117
     6  C   -0.437604
     7  C   -0.376988
     8  C    0.028271
     9  C   -0.416523
    10  C   -0.011756
    11  C   -0.503530
    12  C    0.693245
    13  C   -0.559126
    14  C    0.719647
    15  H    0.238133
    16  H    0.246927
    17  H    0.247333
    18  H    0.221337
    19  H    0.164908
    20  H    0.231172
    21  H    0.254601
    22  H    0.260543
    23  H    0.243635
    24  H    0.251537
    25  H    0.251537
 Sum of Mulliken charges =   1.00000

 Dipole moment (field-independent basis, Debye):
    X=             -1.5151    Y=              0.2502    Z=              0.0000  Tot=              1.5356
 Quadrupole moment (field-independent basis, Debye-Ang):
   XX=            -30.5485   YY=            -56.2901   ZZ=            -84.1611
   XY=             -1.6090   XZ=             -0.0000   YZ=             -0.0000

 Normal termination of Gaussian 16 at Tue Aug  2 12:28:44 2022.
