 Gaussian 16, Revision C.01,
 Gaussian 16:  ES64L-G16RevC.01  3-Jul-2019

 ---------------------------------------------------------------
 #n M062X/6-311++G(d,p) TD(NStates=1) EmpiricalDispersion=GD3 SP
 ---------------------------------------------------------------

 ----
 SP_8
 ----
 Symbolic Z-matrix:
 Charge =  1 Multiplicity = 1

                         Standard orientation:
 ---------------------------------------------------------------------
 Center     Atomic      Atomic             Coordinates (Angstroms)
 Number     Number       Type             X           Y           Z
 ---------------------------------------------------------------------
      1          6           0        0.013178   -2.793006    0.000000
      2          6           0        1.309833   -3.387024    0.000000
      3          6           0        2.569955   -2.669943    0.000000
      4          6           0        2.538603   -1.506906    0.000000
      5          6           0        0.095060    2.605999    0.000000
      6          6           0       -1.216697    3.585423    0.000000
      7          6           0       -2.446635    3.076814    0.000000
      8          6           0       -2.493654    1.695743    0.000000
      9          6           0       -1.379228   -0.699558    0.000000
     10          6           0        1.281787    0.447508    0.000000
     11          6           0       -0.077361   -1.594421    0.000000
     12          6           0        1.209015   -0.813499    0.000000
     13          6           0       -1.171974    0.726562    0.000000
     14          6           0        0.000000    1.318555    0.000000
     15          1           0       -0.845070   -3.477811    0.000000
     16          1           0        1.349436   -4.470476    0.000000
     17          1           0        3.474736   -3.263526    0.000000
     18          1           0        3.399077   -0.827513    0.000000
     19          1           0        2.204807    0.999639    0.000000
     20          1           0        1.039014    3.135911    0.000000
     21          1           0       -0.989517    4.664564    0.000000
     22          1           0       -3.334343    3.686625    0.000000
     23          1           0       -3.441048    1.170564    0.000000
     24          1           0       -2.124185   -0.785725    0.859585
     25          1           0       -2.124185   -0.785725   -0.859585
 ---------------------------------------------------------------------

 SCF Done:  E(RM062X) =  -539.513411808     A.U. after   16 cycles

 Excitation energies and oscillator strengths:

 Excited State   1:      Singlet-A'     1.4370 eV  862.81 nm  f=0.0202  <S**2>=0.000
      47 -> 48         0.70351
 This state for optimization and/or second-order correction.
 Total Energy, E(TD-HF/TD-DFT) =  -539.460603962
 Copying the excited state density for this state as the 1-particle RhoCI density.

 The electronic state is 1-A'.
 Alpha  occ. eigenvalues --  -10.77642 -10.75634 -10.74178 -10.72620 -10.72176
 Alpha  occ. eigenvalues --  -10.71970 -10.71443 -10.70839 -10.70315 -10.69333
 Alpha  occ. eigenvalues --  -10.68650 -10.68454 -10.68232 -10.66874  -1.19157
 Alpha  occ. eigenvalues --   -1.12642  -1.10014  -1.06692  -1.02077  -1.00819
 Alpha  occ. eigenvalues --   -0.95088  -0.89434  -0.86429  -0.85000  -0.83624
 Alpha  occ. eigenvalues --   -0.77663  -0.76623  -0.74549  -0.72045  -0.69470
 Alpha  occ. eigenvalues --   -0.69052  -0.67724  -0.66478  -0.65064  -0.63596
 Alpha  occ. eigenvalues --   -0.62894  -0.62886  -0.60577  -0.57664  -0.56976
 Alpha  occ. eigenvalues --   -0.55824  -0.54774  -0.53809  -0.52276  -0.49908
 Alpha  occ. eigenvalues --   -0.46616  -0.38445
 Alpha virt. eigenvalues --   -0.26736  -0.15072  -0.12774  -0.11608  -0.11514
 Alpha virt. eigenvalues --   -0.10305  -0.09740  -0.07758  -0.07671  -0.07555
 Alpha virt. eigenvalues --   -0.07347  -0.06289  -0.05808  -0.05463  -0.05427

 Mulliken charges:
               1
     1  C   -0.050646
     2  C   -0.330180
     3  C   -0.401891
     4  C    0.134798
     5  C   -0.129010
     6  C   -0.510047
     7  C   -0.387398
     8  C    0.092626
     9  C   -0.436771
    10  C   -0.079346
    11  C   -0.510287
    12  C    0.649606
    13  C   -0.227692
    14  C    0.574894
    15  H    0.250309
    16  H    0.278274
    17  H    0.262346
    18  H    0.249195
    19  H    0.130123
    20  H    0.213246
    21  H    0.241729
    22  H    0.233919
    23  H    0.231058
    24  H    0.260573
    25  H    0.260573
 Sum of Mulliken charges =   1.00000

 Dipole moment (field-independent basis, Debye):
    X=              2.3310    Y=             -4.7549    Z=              0.0000  Tot=              5.2955
 Quadrupole moment (field-independent basis, Debye-Ang):
   XX=            -48.1064   YY=            -35.7693   ZZ=            -83.8105
   XY=            -13.7440   XZ=             -0.0000   YZ=              0.0000

 Normal termination of Gaussian 16 at Tue Aug  2 13:04:27 2022.
