 Gaussian 16, Revision C.01,
 Gaussian 16:  ES64L-G16RevC.01  3-Jul-2019

 ---------------------------------------------------------------
 #n M062X/6-311++G(d,p) TD(NStates=1) EmpiricalDispersion=GD3 SP
 ---------------------------------------------------------------

 -----
 SP_-6
 -----
 Symbolic Z-matrix:
 Charge =  1 Multiplicity = 1

                         Standard orientation:
 ---------------------------------------------------------------------
 Center     Atomic      Atomic             Coordinates (Angstroms)
 Number     Number       Type             X           Y           Z
 ---------------------------------------------------------------------
      1          6           0        0.227400    2.849822    0.000000
      2          6           0       -0.790461    3.778124    0.000000
      3          6           0       -2.009518    3.227043    0.000000
      4          6           0       -2.216825    1.652694    0.000000
      5          6           0       -0.235418   -3.015421    0.000000
      6          6           0        0.846238   -3.632445    0.000000
      7          6           0        2.113476   -2.953901    0.000000
      8          6           0        2.198104   -1.559096    0.000000
      9          6           0        1.224066    0.597844    0.000000
     10          6           0       -1.316973   -0.781121    0.000000
     11          6           0        0.000000    1.301659    0.000000
     12          6           0       -1.221792    0.761474    0.000000
     13          6           0        1.135837   -0.915995    0.000000
     14          6           0       -0.213000   -1.524832    0.000000
     15          1           0        1.284300    3.139769    0.000000
     16          1           0       -0.623325    4.844391    0.000000
     17          1           0       -2.917091    3.815296    0.000000
     18          1           0       -3.270565    1.357380    0.000000
     19          1           0       -2.319213   -1.202816    0.000000
     20          1           0       -1.212119   -3.483090    0.000000
     21          1           0        0.871785   -4.720102    0.000000
     22          1           0        3.030377   -3.535624    0.000000
     23          1           0        3.172913   -1.085492    0.000000
     24          1           0        1.768066    1.077597    0.859585
     25          1           0        1.768066    1.077597   -0.859585
 ---------------------------------------------------------------------

 SCF Done:  E(RM062X) =  -539.622018336     A.U. after   16 cycles

 Excitation energies and oscillator strengths:

 Excited State   1:      Singlet-A'     1.6499 eV  751.47 nm  f=0.0224  <S**2>=0.000
      47 -> 48         0.70260
 This state for optimization and/or second-order correction.
 Total Energy, E(TD-HF/TD-DFT) =  -539.561386223
 Copying the excited state density for this state as the 1-particle RhoCI density.

 The electronic state is 1-A'.
 Alpha  occ. eigenvalues --  -10.76856 -10.75583 -10.74489 -10.73921 -10.72563
 Alpha  occ. eigenvalues --  -10.70992 -10.70733 -10.70588 -10.70482 -10.70468
 Alpha  occ. eigenvalues --  -10.69418 -10.69177 -10.68647 -10.67535  -1.17973
 Alpha  occ. eigenvalues --   -1.12657  -1.08156  -1.06570  -1.02101  -1.01179
 Alpha  occ. eigenvalues --   -0.94903  -0.89818  -0.86610  -0.85450  -0.83457
 Alpha  occ. eigenvalues --   -0.77517  -0.77078  -0.74089  -0.71165  -0.69462
 Alpha  occ. eigenvalues --   -0.68327  -0.68317  -0.67285  -0.66406  -0.64174
 Alpha  occ. eigenvalues --   -0.62067  -0.61947  -0.61305  -0.57742  -0.57302
 Alpha  occ. eigenvalues --   -0.56002  -0.55408  -0.52429  -0.51730  -0.51336
 Alpha  occ. eigenvalues --   -0.46648  -0.39588
 Alpha virt. eigenvalues --   -0.26652  -0.14985  -0.13848  -0.12073  -0.11426
 Alpha virt. eigenvalues --   -0.10197  -0.09568  -0.07836  -0.07598  -0.07576
 Alpha virt. eigenvalues --   -0.07358  -0.06828  -0.05682  -0.05563  -0.05507

 Mulliken charges:
               1
     1  C    0.089942
     2  C   -0.416994
     3  C   -0.367105
     4  C    0.120906
     5  C    0.139426
     6  C   -0.392089
     7  C   -0.366337
     8  C   -0.163125
     9  C   -0.412056
    10  C    0.025066
    11  C   -0.027186
    12  C    0.040318
    13  C   -0.457533
    14  C    0.530988
    15  H    0.227185
    16  H    0.245150
    17  H    0.232394
    18  H    0.219260
    19  H    0.205420
    20  H    0.236716
    21  H    0.256511
    22  H    0.278423
    23  H    0.242572
    24  H    0.256074
    25  H    0.256074
 Sum of Mulliken charges =   1.00000

 Dipole moment (field-independent basis, Debye):
    X=              1.8623    Y=             -3.5677    Z=             -0.0000  Tot=              4.0245
 Quadrupole moment (field-independent basis, Debye-Ang):
   XX=            -52.8822   YY=            -33.3127   ZZ=            -84.0038
   XY=             -9.0062   XZ=             -0.0000   YZ=             -0.0000

 Normal termination of Gaussian 16 at Tue Aug  2 12:18:40 2022.
