 Gaussian 16, Revision C.01,
 Gaussian 16:  ES64L-G16RevC.01  3-Jul-2019

 ---------------------------------------------------------------
 #n M062X/6-311++G(d,p) TD(NStates=1) EmpiricalDispersion=GD3 SP
 ---------------------------------------------------------------

 ------
 SP_-10
 ------
 Symbolic Z-matrix:
 Charge =  1 Multiplicity = 1

                         Standard orientation:
 ---------------------------------------------------------------------
 Center     Atomic      Atomic             Coordinates (Angstroms)
 Number     Number       Type             X           Y           Z
 ---------------------------------------------------------------------
      1          6           0        2.535525    1.644200    0.000000
      2          6           0        2.567272    3.018192    0.000000
      3          6           0        1.364485    3.548722    0.000000
      4          6           0       -0.030167    2.583353    0.000000
      5          6           0       -2.614300   -1.500735    0.000000
      6          6           0       -2.622353   -2.607822    0.000000
      7          6           0       -1.344038   -3.325694    0.000000
      8          6           0       -0.041804   -2.744245    0.000000
      9          6           0        1.345122   -0.700508    0.000000
     10          6           0       -1.327846    0.440231    0.000000
     11          6           0        1.133091    0.704398    0.000000
     12          6           0        0.000000    1.318156    0.000000
     13          6           0        0.032380   -1.604217    0.000000
     14          6           0       -1.262503   -0.792029    0.000000
     15          1           0        3.443951    1.052020    0.000000
     16          1           0        3.476739    3.591868    0.000000
     17          1           0        1.149118    4.632430    0.000000
     18          1           0       -0.936065    3.178466    0.000000
     19          1           0       -2.236338    1.020176    0.000000
     20          1           0       -3.463878   -0.809724    0.000000
     21          1           0       -3.513305   -3.227343    0.000000
     22          1           0       -1.384836   -4.409537    0.000000
     23          1           0        0.806443   -3.438893    0.000000
     24          1           0        2.124496   -0.740739    0.859585
     25          1           0        2.124496   -0.740739   -0.859585
 ---------------------------------------------------------------------

 SCF Done:  E(RM062X) =  -539.356992479     A.U. after   17 cycles

 Excitation energies and oscillator strengths:

 Excited State   1:      Singlet-A'     1.1229 eV 1104.10 nm  f=0.0412  <S**2>=0.000
      47 -> 48         0.70516
 This state for optimization and/or second-order correction.
 Total Energy, E(TD-HF/TD-DFT) =  -539.315724938
 Copying the excited state density for this state as the 1-particle RhoCI density.

 The electronic state is 1-A'.
 Alpha  occ. eigenvalues --  -10.78724 -10.75311 -10.73148 -10.72282 -10.72083
 Alpha  occ. eigenvalues --  -10.71556 -10.71106 -10.70525 -10.69972 -10.69321
 Alpha  occ. eigenvalues --  -10.68401 -10.67988 -10.67729 -10.66410  -1.20208
 Alpha  occ. eigenvalues --   -1.12937  -1.11661  -1.06778  -1.02472  -1.01035
 Alpha  occ. eigenvalues --   -0.95759  -0.88571  -0.86324  -0.84570  -0.83726
 Alpha  occ. eigenvalues --   -0.77735  -0.76610  -0.74649  -0.72917  -0.69767
 Alpha  occ. eigenvalues --   -0.69022  -0.68118  -0.66397  -0.64586  -0.63664
 Alpha  occ. eigenvalues --   -0.63310  -0.63232  -0.59926  -0.57951  -0.56398
 Alpha  occ. eigenvalues --   -0.55426  -0.55053  -0.53491  -0.52364  -0.48641
 Alpha  occ. eigenvalues --   -0.47207  -0.37076
 Alpha virt. eigenvalues --   -0.27160  -0.15330  -0.12269  -0.11613  -0.10524
 Alpha virt. eigenvalues --   -0.10381  -0.09842  -0.07790  -0.07739  -0.07566
 Alpha virt. eigenvalues --   -0.07351  -0.06142  -0.05859  -0.05406  -0.05351

 Mulliken charges:
               1
     1  C    0.148519
     2  C   -0.416642
     3  C   -0.466096
     4  C   -0.153401
     5  C    0.060300
     6  C   -0.376985
     7  C   -0.356421
     8  C   -0.049509
     9  C   -0.433502
    10  C   -0.101690
    11  C   -0.072938
    12  C    0.578681
    13  C   -0.584325
    14  C    0.607113
    15  H    0.228379
    16  H    0.233729
    17  H    0.239961
    18  H    0.210147
    19  H    0.138105
    20  H    0.244594
    21  H    0.262346
    22  H    0.281707
    23  H    0.246841
    24  H    0.265544
    25  H    0.265544
 Sum of Mulliken charges =   1.00000

 Dipole moment (field-independent basis, Debye):
    X=             -2.4382    Y=             -5.2999    Z=             -0.0000  Tot=              5.8339
 Quadrupole moment (field-independent basis, Debye-Ang):
   XX=            -47.0850   YY=            -35.9021   ZZ=            -83.5066
   XY=             14.6763   XZ=             -0.0000   YZ=              0.0000

 Normal termination of Gaussian 16 at Tue Aug  2 11:57:12 2022.
