 Gaussian 16, Revision C.01,
 Gaussian 16:  ES64L-G16RevC.01  3-Jul-2019

 ---------------------------------------------------------------
 #n M062X/6-311++G(d,p) TD(NStates=1) EmpiricalDispersion=GD3 SP
 ---------------------------------------------------------------

 -----
 SP_10
 -----
 Symbolic Z-matrix:
 Charge =  1 Multiplicity = 1

                         Standard orientation:
 ---------------------------------------------------------------------
 Center     Atomic      Atomic             Coordinates (Angstroms)
 Number     Number       Type             X           Y           Z
 ---------------------------------------------------------------------
      1          6           0       -2.391229   -1.530972    0.000000
      2          6           0       -2.355073   -2.911864    0.000000
      3          6           0       -1.131553   -3.572839    0.000000
      4          6           0        0.050645   -2.853051    0.000000
      5          6           0        2.404112    1.474764    0.000000
      6          6           0        2.390128    2.898756    0.000000
      7          6           0        1.191986    3.586071    0.000000
      8          6           0        0.006023    2.840127    0.000000
      9          6           0       -1.268727    0.709058    0.000000
     10          6           0        1.252420   -0.688497    0.000000
     11          6           0       -1.198130   -0.795155    0.000000
     12          6           0        0.023820   -1.441203    0.000000
     13          6           0        0.000000    1.426533    0.000000
     14          6           0        1.243576    0.712571    0.000000
     15          1           0       -3.322548   -0.978520    0.000000
     16          1           0       -3.287532   -3.455984    0.000000
     17          1           0       -1.073648   -4.651559    0.000000
     18          1           0        0.984329   -3.399740    0.000000
     19          1           0        2.186770   -1.233049    0.000000
     20          1           0        3.343773    0.934821    0.000000
     21          1           0        3.318772    3.453355    0.000000
     22          1           0        1.187434    4.666395    0.000000
     23          1           0       -0.931456    3.385499    0.000000
     24          1           0       -1.856941    1.076501    0.859585
     25          1           0       -1.856941    1.076501   -0.859585
 ---------------------------------------------------------------------

 SCF Done:  E(RM062X) =  -539.755658916     A.U. after   15 cycles

 Excitation energies and oscillator strengths:

 Excited State   1:      Singlet-A'     2.7981 eV  443.11 nm  f=0.0295  <S**2>=0.000
      47 -> 48         0.70282
 This state for optimization and/or second-order correction.
 Total Energy, E(TD-HF/TD-DFT) =  -539.652832102
 Copying the excited state density for this state as the 1-particle RhoCI density.

 The electronic state is 1-A'.
 Alpha  occ. eigenvalues --  -10.77657 -10.73518 -10.72963 -10.72486 -10.72372
 Alpha  occ. eigenvalues --  -10.71768 -10.71258 -10.70992 -10.70980 -10.70743
 Alpha  occ. eigenvalues --  -10.70210 -10.69938 -10.69732 -10.69316  -1.16466
 Alpha  occ. eigenvalues --   -1.12492  -1.06954  -1.05788  -1.01309  -1.00253
 Alpha  occ. eigenvalues --   -0.95752  -0.91080  -0.86414  -0.85881  -0.83792
 Alpha  occ. eigenvalues --   -0.78400  -0.76038  -0.74398  -0.69750  -0.69114
 Alpha  occ. eigenvalues --   -0.68532  -0.68129  -0.68116  -0.64782  -0.64252
 Alpha  occ. eigenvalues --   -0.63040  -0.61798  -0.60077  -0.59639  -0.59132
 Alpha  occ. eigenvalues --   -0.56882  -0.55159  -0.54764  -0.52453  -0.46644
 Alpha  occ. eigenvalues --   -0.46098  -0.44441
 Alpha virt. eigenvalues --   -0.26096  -0.14740  -0.14031  -0.12748  -0.11180
 Alpha virt. eigenvalues --   -0.10090  -0.09232  -0.07989  -0.07957  -0.07474
 Alpha virt. eigenvalues --   -0.07204  -0.07141  -0.05644  -0.05584  -0.05339

 Mulliken charges:
               1
     1  C    0.069331
     2  C   -0.432473
     3  C   -0.443018
     4  C   -0.072808
     5  C    0.076139
     6  C   -0.430354
     7  C   -0.378317
     8  C    0.120092
     9  C   -0.349880
    10  C    0.079813
    11  C   -0.639950
    12  C    0.799853
    13  C   -0.636132
    14  C    0.617661
    15  H    0.235208
    16  H    0.256168
    17  H    0.245405
    18  H    0.224716
    19  H    0.190589
    20  H    0.218933
    21  H    0.252071
    22  H    0.256417
    23  H    0.240047
    24  H    0.250243
    25  H    0.250243
 Sum of Mulliken charges =   1.00000

 Dipole moment (field-independent basis, Debye):
    X=              0.3067    Y=              0.1674    Z=             -0.0000  Tot=              0.3494
 Quadrupole moment (field-independent basis, Debye-Ang):
   XX=            -51.0427   YY=            -36.3677   ZZ=            -84.1370
   XY=             10.2277   XZ=              0.0000   YZ=             -0.0000

 Normal termination of Gaussian 16 at Wed Jul 27 13:47:54 2022.
