 Gaussian 16, Revision C.01,
 Gaussian 16:  ES64L-G16RevC.01  3-Jul-2019

 ---------------------------------------------------------------
 #n M062X/6-311++G(d,p) TD(NStates=1) EmpiricalDispersion=GD3 SP
 ---------------------------------------------------------------

 -----
 SP_12
 -----
 Symbolic Z-matrix:
 Charge =  1 Multiplicity = 1

                         Standard orientation:
 ---------------------------------------------------------------------
 Center     Atomic      Atomic             Coordinates (Angstroms)
 Number     Number       Type             X           Y           Z
 ---------------------------------------------------------------------
      1          6           0        2.487311   -1.384006    0.000000
      2          6           0        3.685129   -0.702286    0.000000
      3          6           0        3.686533    0.685177    0.000000
      4          6           0        2.482708    1.390516    0.000000
      5          6           0       -2.443499    1.424322    0.000000
      6          6           0       -3.680972    0.742491    0.000000
      7          6           0       -3.717639   -0.641455    0.000000
      8          6           0       -2.497777   -1.336871    0.000000
      9          6           0       -0.023667   -1.453215    0.000000
     10          6           0        0.000000    1.429247    0.000000
     11          6           0        1.264445   -0.672639    0.000000
     12          6           0        1.256961    0.698153    0.000000
     13          6           0       -1.259847   -0.681587    0.000000
     14          6           0       -1.217497    0.763160    0.000000
     15          1           0        2.428419   -2.465538    0.000000
     16          1           0        4.603320   -1.269648    0.000000
     17          1           0        4.604288    1.255483    0.000000
     18          1           0        2.534204    2.471418    0.000000
     19          1           0        0.046100    2.509953    0.000000
     20          1           0       -2.400769    2.507703    0.000000
     21          1           0       -4.614303    1.289407    0.000000
     22          1           0       -4.669515   -1.153234    0.000000
     23          1           0       -2.547523   -2.420884    0.000000
     24          1           0       -0.058679   -2.145347    0.859585
     25          1           0       -0.058679   -2.145347   -0.859585
 ---------------------------------------------------------------------

 SCF Done:  E(RM062X) =  -539.754509486     A.U. after   15 cycles

 Excitation energies and oscillator strengths:

 Excited State   1:      Singlet-A'     2.8148 eV  440.48 nm  f=0.0301  <S**2>=0.000
      47 -> 48         0.70228
 This state for optimization and/or second-order correction.
 Total Energy, E(TD-HF/TD-DFT) =  -539.651068884
 Copying the excited state density for this state as the 1-particle RhoCI density.

 The electronic state is 1-A'.
 Alpha  occ. eigenvalues --  -10.77610 -10.73745 -10.72694 -10.72641 -10.72176
 Alpha  occ. eigenvalues --  -10.72032 -10.71702 -10.70982 -10.70745 -10.70341
 Alpha  occ. eigenvalues --  -10.70316 -10.70105 -10.69599 -10.69167  -1.16471
 Alpha  occ. eigenvalues --   -1.12481  -1.06993  -1.05839  -1.01266  -1.00182
 Alpha  occ. eigenvalues --   -0.95803  -0.91123  -0.86384  -0.85868  -0.83766
 Alpha  occ. eigenvalues --   -0.78417  -0.76030  -0.74405  -0.69949  -0.69075
 Alpha  occ. eigenvalues --   -0.68493  -0.68127  -0.68008  -0.64888  -0.64094
 Alpha  occ. eigenvalues --   -0.63009  -0.61820  -0.60042  -0.59686  -0.59272
 Alpha  occ. eigenvalues --   -0.56795  -0.55232  -0.54574  -0.52481  -0.46618
 Alpha  occ. eigenvalues --   -0.46084  -0.44476
 Alpha virt. eigenvalues --   -0.26112  -0.14726  -0.14016  -0.12734  -0.11185
 Alpha virt. eigenvalues --   -0.10094  -0.09242  -0.07990  -0.07942  -0.07473
 Alpha virt. eigenvalues --   -0.07207  -0.07135  -0.05643  -0.05584  -0.05347

 Mulliken charges:
               1
     1  C    0.070328
     2  C   -0.435806
     3  C   -0.446206
     4  C   -0.105878
     5  C    0.091810
     6  C   -0.425863
     7  C   -0.370097
     8  C    0.116897
     9  C   -0.363806
    10  C    0.070458
    11  C   -0.628573
    12  C    0.831034
    13  C   -0.642088
    14  C    0.616673
    15  H    0.234611
    16  H    0.254348
    17  H    0.243735
    18  H    0.224367
    19  H    0.190736
    20  H    0.219681
    21  H    0.253902
    22  H    0.258206
    23  H    0.241674
    24  H    0.249928
    25  H    0.249928
 Sum of Mulliken charges =   1.00000

 Dipole moment (field-independent basis, Debye):
    X=             -0.7467    Y=              0.1944    Z=              0.0000  Tot=              0.7715
 Quadrupole moment (field-independent basis, Debye-Ang):
   XX=            -31.0855   YY=            -56.2947   ZZ=            -84.1321
   XY=              0.4665   XZ=             -0.0000   YZ=             -0.0000

 Normal termination of Gaussian 16 at Wed Jul 27 13:59:14 2022.
