 Gaussian 16, Revision C.01,
 Gaussian 16:  ES64L-G16RevC.01  3-Jul-2019

 ---------------------------------------------------------------
 #n M062X/6-311++G(d,p) TD(NStates=1) EmpiricalDispersion=GD3 SP
 ---------------------------------------------------------------

 -----
 SP_18
 -----
 Symbolic Z-matrix:
 Charge =  1 Multiplicity = 1

                         Standard orientation:
 ---------------------------------------------------------------------
 Center     Atomic      Atomic             Coordinates (Angstroms)
 Number     Number       Type             X           Y           Z
 ---------------------------------------------------------------------
      1          6           0       -2.400808   -1.512210    0.000000
      2          6           0       -2.362266   -2.885591    0.000000
      3          6           0       -1.143183   -3.564584    0.000000
      4          6           0        0.030987   -2.869162    0.000000
      5          6           0        2.400765    1.449820    0.000000
      6          6           0        2.403528    2.893429    0.000000
      7          6           0        1.218387    3.593922    0.000000
      8          6           0        0.027023    2.841979    0.000000
      9          6           0       -1.258760    0.726863    0.000000
     10          6           0        1.245299   -0.701328    0.000000
     11          6           0       -1.203526   -0.798415    0.000000
     12          6           0       -0.004257   -1.446078    0.000000
     13          6           0        0.000000    1.420463    0.000000
     14          6           0        1.253993    0.686066    0.000000
     15          1           0       -3.315749   -0.932437    0.000000
     16          1           0       -3.306161   -3.409956    0.000000
     17          1           0       -1.084218   -4.642780    0.000000
     18          1           0        0.950666   -3.438995    0.000000
     19          1           0        2.165091   -1.271689    0.000000
     20          1           0        3.327863    0.885915    0.000000
     21          1           0        3.332254    3.449306    0.000000
     22          1           0        1.236660    4.674725    0.000000
     23          1           0       -0.895522    3.415493    0.000000
     24          1           0       -1.826994    1.129687    0.859585
     25          1           0       -1.826994    1.129687   -0.859585
 ---------------------------------------------------------------------

 SCF Done:  E(RM062X) =  -539.744741744     A.U. after   16 cycles

 Excitation energies and oscillator strengths:

 Excited State   1:      Singlet-A'     2.7329 eV  453.68 nm  f=0.0302  <S**2>=0.000
      47 -> 48         0.70170
 This state for optimization and/or second-order correction.
 Total Energy, E(TD-HF/TD-DFT) =  -539.644310947
 Copying the excited state density for this state as the 1-particle RhoCI density.

 The electronic state is 1-A'.
 Alpha  occ. eigenvalues --  -10.77647 -10.73703 -10.72791 -10.72486 -10.72353
 Alpha  occ. eigenvalues --  -10.72044 -10.71364 -10.71029 -10.70711 -10.70616
 Alpha  occ. eigenvalues --  -10.70376 -10.70155 -10.69559 -10.69081  -1.16527
 Alpha  occ. eigenvalues --   -1.12560  -1.06961  -1.05912  -1.01315  -1.00444
 Alpha  occ. eigenvalues --   -0.95659  -0.91118  -0.86417  -0.85835  -0.83741
 Alpha  occ. eigenvalues --   -0.78389  -0.76071  -0.74345  -0.69954  -0.69033
 Alpha  occ. eigenvalues --   -0.68570  -0.68147  -0.68016  -0.64848  -0.64255
 Alpha  occ. eigenvalues --   -0.62960  -0.61631  -0.60247  -0.59546  -0.59171
 Alpha  occ. eigenvalues --   -0.56879  -0.55017  -0.54629  -0.52480  -0.46762
 Alpha  occ. eigenvalues --   -0.46172  -0.44254
 Alpha virt. eigenvalues --   -0.26109  -0.14874  -0.13915  -0.12693  -0.11184
 Alpha virt. eigenvalues --   -0.10100  -0.09234  -0.08005  -0.07928  -0.07471
 Alpha virt. eigenvalues --   -0.07208  -0.07132  -0.05649  -0.05589  -0.05353

 Mulliken charges:
               1
     1  C    0.046176
     2  C   -0.447234
     3  C   -0.435956
     4  C   -0.164905
     5  C    0.113301
     6  C   -0.419914
     7  C   -0.355564
     8  C    0.147287
     9  C   -0.385177
    10  C    0.046211
    11  C   -0.624568
    12  C    0.933517
    13  C   -0.641631
    14  C    0.567138
    15  H    0.234313
    16  H    0.256485
    17  H    0.242629
    18  H    0.226693
    19  H    0.191120
    20  H    0.215949
    21  H    0.254081
    22  H    0.256070
    23  H    0.242239
    24  H    0.250870
    25  H    0.250870
 Sum of Mulliken charges =   1.00000

 Dipole moment (field-independent basis, Debye):
    X=              0.3775    Y=              0.2886    Z=              0.0000  Tot=              0.4752
 Quadrupole moment (field-independent basis, Debye-Ang):
   XX=            -51.4240   YY=            -36.0659   ZZ=            -84.1266
   XY=             10.0104   XZ=             -0.0000   YZ=              0.0000

 Normal termination of Gaussian 16 at Wed Jul 27 14:50:35 2022.
