 Gaussian 16, Revision C.01,
 Gaussian 16:  ES64L-G16RevC.01  3-Jul-2019

 ---------------------------------------------------------------
 #n M062X/6-311++G(d,p) TD(NStates=1) EmpiricalDispersion=GD3 SP
 ---------------------------------------------------------------

 -----
 SP_14
 -----
 Symbolic Z-matrix:
 Charge =  1 Multiplicity = 1

                         Standard orientation:
 ---------------------------------------------------------------------
 Center     Atomic      Atomic             Coordinates (Angstroms)
 Number     Number       Type             X           Y           Z
 ---------------------------------------------------------------------
      1          6           0       -2.397335   -1.522126    0.000000
      2          6           0       -2.361283   -2.899052    0.000000
      3          6           0       -1.140460   -3.568297    0.000000
      4          6           0        0.040112   -2.858975    0.000000
      5          6           0        2.404665    1.462817    0.000000
      6          6           0        2.398826    2.893714    0.000000
      7          6           0        1.206280    3.587656    0.000000
      8          6           0        0.016764    2.839691    0.000000
      9          6           0       -1.263885    0.717744    0.000000
     10          6           0        1.250045   -0.692799    0.000000
     11          6           0       -1.199685   -0.796084    0.000000
     12          6           0        0.009641   -1.442822    0.000000
     13          6           0        0.000000    1.424835    0.000000
     14          6           0        1.249606    0.699654    0.000000
     15          1           0       -3.319773   -0.954701    0.000000
     16          1           0       -3.299589   -3.433028    0.000000
     17          1           0       -1.080795   -4.646745    0.000000
     18          1           0        0.966097   -3.418547    0.000000
     19          1           0        2.176763   -1.250955    0.000000
     20          1           0        3.337352    0.909582    0.000000
     21          1           0        3.326862    3.449998    0.000000
     22          1           0        1.213434    4.668298    0.000000
     23          1           0       -0.912560    3.400447    0.000000
     24          1           0       -1.843771    1.099963    0.859585
     25          1           0       -1.843771    1.099963   -0.859585
 ---------------------------------------------------------------------

 SCF Done:  E(RM062X) =  -539.751430148     A.U. after   15 cycles

 Excitation energies and oscillator strengths:

 Excited State   1:      Singlet-A'     2.7805 eV  445.91 nm  f=0.0304  <S**2>=0.000
      47 -> 48         0.70191
 This state for optimization and/or second-order correction.
 Total Energy, E(TD-HF/TD-DFT) =  -539.649248548
 Copying the excited state density for this state as the 1-particle RhoCI density.

 The electronic state is 1-A'.
 Alpha  occ. eigenvalues --  -10.77646 -10.73643 -10.72835 -10.72515 -10.72329
 Alpha  occ. eigenvalues --  -10.71944 -10.71387 -10.71004 -10.70816 -10.70607
 Alpha  occ. eigenvalues --  -10.70310 -10.70069 -10.69629 -10.69183  -1.16488
 Alpha  occ. eigenvalues --   -1.12515  -1.06966  -1.05843  -1.01302  -1.00305
 Alpha  occ. eigenvalues --   -0.95733  -0.91105  -0.86407  -0.85861  -0.83767
 Alpha  occ. eigenvalues --   -0.78402  -0.76045  -0.74381  -0.69878  -0.69056
 Alpha  occ. eigenvalues --   -0.68549  -0.68131  -0.68063  -0.64820  -0.64211
 Alpha  occ. eigenvalues --   -0.63019  -0.61742  -0.60124  -0.59623  -0.59176
 Alpha  occ. eigenvalues --   -0.56863  -0.55113  -0.54684  -0.52470  -0.46652
 Alpha  occ. eigenvalues --   -0.46129  -0.44401
 Alpha virt. eigenvalues --   -0.26104  -0.14793  -0.13978  -0.12725  -0.11182
 Alpha virt. eigenvalues --   -0.10095  -0.09234  -0.07996  -0.07944  -0.07472
 Alpha virt. eigenvalues --   -0.07206  -0.07137  -0.05646  -0.05586  -0.05346

 Mulliken charges:
               1
     1  C    0.059588
     2  C   -0.440451
     3  C   -0.441450
     4  C   -0.118476
     5  C    0.096329
     6  C   -0.425077
     7  C   -0.366406
     8  C    0.131515
     9  C   -0.366371
    10  C    0.065377
    11  C   -0.634468
    12  C    0.863079
    13  C   -0.639309
    14  C    0.595393
    15  H    0.234642
    16  H    0.255977
    17  H    0.243869
    18  H    0.225598
    19  H    0.190829
    20  H    0.217742
    21  H    0.253349
    22  H    0.256585
    23  H    0.241340
    24  H    0.250399
    25  H    0.250399
 Sum of Mulliken charges =   1.00000

 Dipole moment (field-independent basis, Debye):
    X=              0.3793    Y=              0.2947    Z=              0.0000  Tot=              0.4804
 Quadrupole moment (field-independent basis, Debye-Ang):
   XX=            -51.2016   YY=            -36.2362   ZZ=            -84.1323
   XY=             10.1399   XZ=             -0.0000   YZ=             -0.0000

 Normal termination of Gaussian 16 at Wed Jul 27 14:18:01 2022.
