 Gaussian 16, Revision C.01,
 Gaussian 16:  ES64L-G16RevC.01  3-Jul-2019

 ---------------------------------------------------------------
 #n M062X/6-311++G(d,p) TD(NStates=1) EmpiricalDispersion=GD3 SP
 ---------------------------------------------------------------

 ----
 SP_2
 ----
 Symbolic Z-matrix:
 Charge =  1 Multiplicity = 1

                         Standard orientation:
 ---------------------------------------------------------------------
 Center     Atomic      Atomic             Coordinates (Angstroms)
 Number     Number       Type             X           Y           Z
 ---------------------------------------------------------------------
      1          6           0       -2.360481   -1.541549    0.000000
      2          6           0       -2.305582   -2.933003    0.000000
      3          6           0       -1.069482   -3.587372    0.000000
      4          6           0        0.082957   -2.871007    0.000000
      5          6           0        2.371769    1.491401    0.000000
      6          6           0        2.343462    2.942390    0.000000
      7          6           0        1.146535    3.615907    0.000000
      8          6           0       -0.019958    2.860185    0.000000
      9          6           0       -1.276788    0.694468    0.000000
     10          6           0        1.241411   -0.709503    0.000000
     11          6           0       -1.210634   -0.803766    0.000000
     12          6           0        0.054775   -1.449553    0.000000
     13          6           0        0.000000    1.411262    0.000000
     14          6           0        1.220077    0.733890    0.000000
     15          1           0       -3.319210   -1.037773    0.000000
     16          1           0       -3.224441   -3.501442    0.000000
     17          1           0       -1.032023   -4.667110    0.000000
     18          1           0        1.041724   -3.373230    0.000000
     19          1           0        2.196072   -1.216798    0.000000
     20          1           0        3.335015    0.996750    0.000000
     21          1           0        3.282560    3.479409    0.000000
     22          1           0        1.114185    4.694563    0.000000
     23          1           0       -0.983343    3.356054    0.000000
     24          1           0       -1.859450    1.073536    0.859585
     25          1           0       -1.859450    1.073536   -0.859585
 ---------------------------------------------------------------------

 SCF Done:  E(RM062X) =  -539.751559427     A.U. after   16 cycles

 Excitation energies and oscillator strengths:

 Excited State   1:      Singlet-A'     2.6313 eV  471.18 nm  f=0.0194  <S**2>=0.000
      47 -> 48         0.70336
 This state for optimization and/or second-order correction.
 Total Energy, E(TD-HF/TD-DFT) =  -539.654859790
 Copying the excited state density for this state as the 1-particle RhoCI density.

 The electronic state is 1-A'.
 Alpha  occ. eigenvalues --  -10.77577 -10.73725 -10.72846 -10.72743 -10.72088
 Alpha  occ. eigenvalues --  -10.71937 -10.71727 -10.71000 -10.70909 -10.70164
 Alpha  occ. eigenvalues --  -10.70007 -10.69823 -10.69776 -10.69402  -1.16566
 Alpha  occ. eigenvalues --   -1.12493  -1.06911  -1.05873  -1.01313  -1.00497
 Alpha  occ. eigenvalues --   -0.95521  -0.91016  -0.86460  -0.85877  -0.83802
 Alpha  occ. eigenvalues --   -0.78300  -0.76181  -0.74340  -0.69775  -0.69300
 Alpha  occ. eigenvalues --   -0.68334  -0.68082  -0.68068  -0.65282  -0.64305
 Alpha  occ. eigenvalues --   -0.62679  -0.61589  -0.60506  -0.59211  -0.59192
 Alpha  occ. eigenvalues --   -0.56897  -0.55416  -0.54386  -0.52428  -0.47438
 Alpha  occ. eigenvalues --   -0.46135  -0.43670
 Alpha virt. eigenvalues --   -0.26108  -0.14719  -0.14034  -0.12749  -0.11191
 Alpha virt. eigenvalues --   -0.10093  -0.09260  -0.07958  -0.07912  -0.07487
 Alpha virt. eigenvalues --   -0.07211  -0.07132  -0.05649  -0.05573  -0.05350

 Mulliken charges:
               1
     1  C    0.066645
     2  C   -0.408446
     3  C   -0.433602
     4  C    0.024827
     5  C    0.002355
     6  C   -0.445076
     7  C   -0.405578
     8  C    0.121770
     9  C   -0.338013
    10  C    0.087423
    11  C   -0.646164
    12  C    0.723968
    13  C   -0.614773
    14  C    0.645104
    15  H    0.238797
    16  H    0.261453
    17  H    0.251173
    18  H    0.225825
    19  H    0.189476
    20  H    0.218171
    21  H    0.246290
    22  H    0.251348
    23  H    0.235688
    24  H    0.250669
    25  H    0.250669
 Sum of Mulliken charges =   1.00000

 Dipole moment (field-independent basis, Debye):
    X=             -0.3557    Y=             -1.0206    Z=              0.0000  Tot=              1.0808
 Quadrupole moment (field-independent basis, Debye-Ang):
   XX=            -51.1107   YY=            -36.1694   ZZ=            -84.1273
   XY=             10.2113   XZ=             -0.0000   YZ=              0.0000

 Normal termination of Gaussian 16 at Wed Jul 27 12:57:31 2022.
