 Gaussian 16, Revision C.01,
 Gaussian 16:  ES64L-G16RevC.01  3-Jul-2019

 ---------------------------------------------------------------
 #n M062X/6-311++G(d,p) TD(NStates=1) EmpiricalDispersion=GD3 SP
 ---------------------------------------------------------------

 -----
 SP_10
 -----
 Symbolic Z-matrix:
 Charge =  1 Multiplicity = 1

                         Standard orientation:
 ---------------------------------------------------------------------
 Center     Atomic      Atomic             Coordinates (Angstroms)
 Number     Number       Type             X           Y           Z
 ---------------------------------------------------------------------
      1          6           0        2.491119   -1.368155    0.000000
      2          6           0        3.687039   -0.677736    0.000000
      3          6           0        3.680738    0.711305    0.000000
      4          6           0        2.477505    1.407061    0.000000
      5          6           0       -2.448822    1.407948    0.000000
      6          6           0       -3.686997    0.716377    0.000000
      7          6           0       -3.715973   -0.666169    0.000000
      8          6           0       -2.494167   -1.352709    0.000000
      9          6           0       -0.014575   -1.453335    0.000000
     10          6           0        0.000000    1.429194    0.000000
     11          6           0        1.269398   -0.669891    0.000000
     12          6           0        1.252535    0.709828    0.000000
     13          6           0       -1.254760   -0.684283    0.000000
     14          6           0       -1.222303    0.751703    0.000000
     15          1           0        2.449016   -2.450261    0.000000
     16          1           0        4.610780   -1.236329    0.000000
     17          1           0        4.598878    1.280750    0.000000
     18          1           0        2.513416    2.488489    0.000000
     19          1           0        0.032316    2.510188    0.000000
     20          1           0       -2.421694    2.491400    0.000000
     21          1           0       -4.619724    1.264014    0.000000
     22          1           0       -4.662626   -1.186918    0.000000
     23          1           0       -2.527107   -2.436840    0.000000
     24          1           0       -0.048842   -2.145663    0.859585
     25          1           0       -0.048842   -2.145663   -0.859585
 ---------------------------------------------------------------------

 SCF Done:  E(RM062X) =  -539.756104926     A.U. after   15 cycles

 Excitation energies and oscillator strengths:

 Excited State   1:      Singlet-A'     2.8117 eV  440.96 nm  f=0.0301  <S**2>=0.000
      47 -> 48         0.70281
 This state for optimization and/or second-order correction.
 Total Energy, E(TD-HF/TD-DFT) =  -539.652777706
 Copying the excited state density for this state as the 1-particle RhoCI density.

 The electronic state is 1-A'.
 Alpha  occ. eigenvalues --  -10.77645 -10.73586 -10.72882 -10.72545 -10.72304
 Alpha  occ. eigenvalues --  -10.71839 -10.71409 -10.70987 -10.70918 -10.70597
 Alpha  occ. eigenvalues --  -10.70242 -10.69979 -10.69699 -10.69282  -1.16462
 Alpha  occ. eigenvalues --   -1.12484  -1.06965  -1.05794  -1.01296  -1.00215
 Alpha  occ. eigenvalues --   -0.95778  -0.91091  -0.86404  -0.85880  -0.83787
 Alpha  occ. eigenvalues --   -0.78407  -0.76031  -0.74404  -0.69799  -0.69102
 Alpha  occ. eigenvalues --   -0.68520  -0.68118  -0.68102  -0.64805  -0.64195
 Alpha  occ. eigenvalues --   -0.63046  -0.61820  -0.60036  -0.59678  -0.59171
 Alpha  occ. eigenvalues --   -0.56855  -0.55190  -0.54720  -0.52460  -0.46613
 Alpha  occ. eigenvalues --   -0.46085  -0.44483
 Alpha virt. eigenvalues --   -0.26099  -0.14726  -0.14035  -0.12748  -0.11182
 Alpha virt. eigenvalues --   -0.10091  -0.09234  -0.07990  -0.07955  -0.07474
 Alpha virt. eigenvalues --   -0.07205  -0.07140  -0.05644  -0.05584  -0.05340

 Mulliken charges:
               1
     1  C    0.072067
     2  C   -0.432334
     3  C   -0.444503
     4  C   -0.077094
     5  C    0.078656
     6  C   -0.429578
     7  C   -0.377469
     8  C    0.116819
     9  C   -0.351831
    10  C    0.079120
    11  C   -0.636866
    12  C    0.799065
    13  C   -0.637586
    14  C    0.621232
    15  H    0.235055
    16  H    0.255476
    17  H    0.245033
    18  H    0.224367
    19  H    0.190623
    20  H    0.219454
    21  H    0.252537
    22  H    0.257099
    23  H    0.240424
    24  H    0.250117
    25  H    0.250117
 Sum of Mulliken charges =   1.00000

 Dipole moment (field-independent basis, Debye):
    X=             -0.4463    Y=              0.1898    Z=              0.0000  Tot=              0.4850
 Quadrupole moment (field-independent basis, Debye-Ang):
   XX=            -31.1199   YY=            -56.2786   ZZ=            -84.1365
   XY=              0.5645   XZ=              0.0000   YZ=             -0.0000

 Normal termination of Gaussian 16 at Wed Jul 27 13:46:29 2022.
