 Gaussian 16, Revision C.01,
 Gaussian 16:  ES64L-G16RevC.01  3-Jul-2019

 ---------------------------------------------------------------
 #n M062X/6-311++G(d,p) TD(NStates=1) EmpiricalDispersion=GD3 SP
 ---------------------------------------------------------------

 -----
 SP_16
 -----
 Symbolic Z-matrix:
 Charge =  1 Multiplicity = 1

                         Standard orientation:
 ---------------------------------------------------------------------
 Center     Atomic      Atomic             Coordinates (Angstroms)
 Number     Number       Type             X           Y           Z
 ---------------------------------------------------------------------
      1          6           0       -2.391219   -1.514121    0.000000
      2          6           0       -2.346155   -2.890455    0.000000
      3          6           0       -1.123141   -3.568970    0.000000
      4          6           0        0.040101   -2.876963    0.000000
      5          6           0        2.389470    1.453193    0.000000
      6          6           0        2.389005    2.907998    0.000000
      7          6           0        1.205458    3.605045    0.000000
      8          6           0        0.020276    2.849136    0.000000
      9          6           0       -1.260657    0.723618    0.000000
     10          6           0        1.240699   -0.709738    0.000000
     11          6           0       -1.208338   -0.801548    0.000000
     12          6           0        0.003666   -1.449617    0.000000
     13          6           0        0.000000    1.414578    0.000000
     14          6           0        1.247084    0.690993    0.000000
     15          1           0       -3.314349   -0.948292    0.000000
     16          1           0       -3.286636   -3.421382    0.000000
     17          1           0       -1.071158   -4.647304    0.000000
     18          1           0        0.967353   -3.433885    0.000000
     19          1           0        2.166345   -1.269893    0.000000
     20          1           0        3.323770    0.902419    0.000000
     21          1           0        3.321210    3.457833    0.000000
     22          1           0        1.216349    4.685510    0.000000
     23          1           0       -0.910085    3.408485    0.000000
     24          1           0       -1.825147    1.133812    0.859585
     25          1           0       -1.825147    1.133812   -0.859585
 ---------------------------------------------------------------------

 SCF Done:  E(RM062X) =  -539.744139488     A.U. after   16 cycles

 Excitation energies and oscillator strengths:

 Excited State   1:      Singlet-A'     2.6673 eV  464.83 nm  f=0.0266  <S**2>=0.000
      47 -> 48         0.70281
 This state for optimization and/or second-order correction.
 Total Energy, E(TD-HF/TD-DFT) =  -539.646116969
 Copying the excited state density for this state as the 1-particle RhoCI density.

 The electronic state is 1-A'.
 Alpha  occ. eigenvalues --  -10.77673 -10.73478 -10.73060 -10.72540 -10.72320
 Alpha  occ. eigenvalues --  -10.71759 -10.71055 -10.71045 -10.70933 -10.70927
 Alpha  occ. eigenvalues --  -10.70245 -10.69982 -10.69692 -10.69224  -1.16557
 Alpha  occ. eigenvalues --   -1.12575  -1.06904  -1.05886  -1.01377  -1.00593
 Alpha  occ. eigenvalues --   -0.95533  -0.91051  -0.86468  -0.85846  -0.83768
 Alpha  occ. eigenvalues --   -0.78338  -0.76126  -0.74317  -0.69767  -0.69118
 Alpha  occ. eigenvalues --   -0.68551  -0.68125  -0.68125  -0.64881  -0.64471
 Alpha  occ. eigenvalues --   -0.62840  -0.61551  -0.60406  -0.59378  -0.59032
 Alpha  occ. eigenvalues --   -0.56988  -0.55056  -0.54668  -0.52442  -0.47081
 Alpha  occ. eigenvalues --   -0.46169  -0.43962
 Alpha virt. eigenvalues --   -0.26096  -0.14887  -0.13934  -0.12702  -0.11182
 Alpha virt. eigenvalues --   -0.10097  -0.09233  -0.07995  -0.07928  -0.07477
 Alpha virt. eigenvalues --   -0.07207  -0.07136  -0.05652  -0.05586  -0.05348

 Mulliken charges:
               1
     1  C    0.047767
     2  C   -0.445818
     3  C   -0.434765
     4  C   -0.126851
     5  C    0.098927
     6  C   -0.424416
     7  C   -0.364311
     8  C    0.151168
     9  C   -0.366812
    10  C    0.059169
    11  C   -0.640923
    12  C    0.892045
    13  C   -0.631612
    14  C    0.566404
    15  H    0.234726
    16  H    0.258327
    17  H    0.244232
    18  H    0.227090
    19  H    0.190570
    20  H    0.215164
    21  H    0.252231
    22  H    0.254335
    23  H    0.240499
    24  H    0.251427
    25  H    0.251427
 Sum of Mulliken charges =   1.00000

 Dipole moment (field-independent basis, Debye):
    X=              0.1513    Y=             -0.1044    Z=             -0.0000  Tot=              0.1838
 Quadrupole moment (field-independent basis, Debye-Ang):
   XX=            -51.4814   YY=            -36.0047   ZZ=            -84.1285
   XY=              9.9562   XZ=             -0.0000   YZ=             -0.0000

 Normal termination of Gaussian 16 at Wed Jul 27 14:38:31 2022.
