 Gaussian 16, Revision C.01,
 Gaussian 16:  ES64L-G16RevC.01  3-Jul-2019

 ---------------------------------------------------------------
 #n M062X/6-311++G(d,p) TD(NStates=1) EmpiricalDispersion=GD3 SP
 ---------------------------------------------------------------

 ----
 SP_0
 ----
 Symbolic Z-matrix:
 Charge =  1 Multiplicity = 1

                         Standard orientation:
 ---------------------------------------------------------------------
 Center     Atomic      Atomic             Coordinates (Angstroms)
 Number     Number       Type             X           Y           Z
 ---------------------------------------------------------------------
      1          6           0        2.495066   -1.350218    0.000000
      2          6           0        3.700681   -0.655229    0.000000
      3          6           0        3.679149    0.732113    0.000000
      4          6           0        2.461418    1.419237    0.000000
      5          6           0       -2.464840    1.395849    0.000000
      6          6           0       -3.688485    0.695520    0.000000
      7          6           0       -3.702260   -0.688767    0.000000
      8          6           0       -2.490202   -1.370647    0.000000
      9          6           0        0.004413   -1.453363    0.000000
     10          6           0        0.000000    1.429201    0.000000
     11          6           0        1.266685   -0.674080    0.000000
     12          6           0        1.236322    0.736077    0.000000
     13          6           0       -1.257422   -0.680024    0.000000
     14          6           0       -1.238598    0.725534    0.000000
     15          1           0        2.497121   -2.433434    0.000000
     16          1           0        4.638131   -1.191292    0.000000
     17          1           0        4.603864    1.291626    0.000000
     18          1           0        2.459175    2.501758    0.000000
     19          1           0       -0.005230    2.510266    0.000000
     20          1           0       -2.475870    2.478334    0.000000
     21          1           0       -4.614579    1.253049    0.000000
     22          1           0       -4.635286   -1.232095    0.000000
     23          1           0       -2.478979   -2.453826    0.000000
     24          1           0        0.000050   -2.145805    0.859585
     25          1           0        0.000050   -2.145805   -0.859585
 ---------------------------------------------------------------------

 SCF Done:  E(RM062X) =  -539.760094750     A.U. after   15 cycles

 Excitation energies and oscillator strengths:

 Excited State   1:      Singlet-A'     2.8183 eV  439.92 nm  f=0.0283  <S**2>=0.000
      47 -> 48         0.70420
 This state for optimization and/or second-order correction.
 Total Energy, E(TD-HF/TD-DFT) =  -539.656522637
 Copying the excited state density for this state as the 1-particle RhoCI density.

 The electronic state is 1-A'.
 Alpha  occ. eigenvalues --  -10.77663 -10.73315 -10.73166 -10.72498 -10.72371
 Alpha  occ. eigenvalues --  -10.71434 -10.71301 -10.71154 -10.70979 -10.70857
 Alpha  occ. eigenvalues --  -10.70005 -10.69939 -10.69667 -10.69592  -1.16444
 Alpha  occ. eigenvalues --   -1.12466  -1.06944  -1.05733  -1.01313  -1.00190
 Alpha  occ. eigenvalues --   -0.95777  -0.91056  -0.86419  -0.85901  -0.83816
 Alpha  occ. eigenvalues --   -0.78398  -0.76030  -0.74417  -0.69568  -0.69245
 Alpha  occ. eigenvalues --   -0.68501  -0.68190  -0.68102  -0.64752  -0.64283
 Alpha  occ. eigenvalues --   -0.63055  -0.61862  -0.60023  -0.59660  -0.59096
 Alpha  occ. eigenvalues --   -0.56896  -0.55224  -0.54825  -0.52438  -0.46643
 Alpha  occ. eigenvalues --   -0.46060  -0.44481
 Alpha virt. eigenvalues --   -0.26088  -0.14670  -0.14097  -0.12773  -0.11179
 Alpha virt. eigenvalues --   -0.10086  -0.09231  -0.07983  -0.07969  -0.07476
 Alpha virt. eigenvalues --   -0.07204  -0.07145  -0.05643  -0.05581  -0.05333

 Mulliken charges:
               1
     1  C    0.090137
     2  C   -0.406196
     3  C   -0.439153
     4  C    0.018280
     5  C    0.011147
     6  C   -0.441069
     7  C   -0.407335
     8  C    0.096283
     9  C   -0.334030
    10  C    0.093194
    11  C   -0.638140
    12  C    0.689123
    13  C   -0.634519
    14  C    0.682790
    15  H    0.237567
    16  H    0.256997
    17  H    0.249311
    18  H    0.222460
    19  H    0.190385
    20  H    0.221567
    21  H    0.248463
    22  H    0.255614
    23  H    0.237003
    24  H    0.250060
    25  H    0.250060
 Sum of Mulliken charges =   1.00000

 Dipole moment (field-independent basis, Debye):
    X=              0.1523    Y=              0.1878    Z=              0.0000  Tot=              0.2418
 Quadrupole moment (field-independent basis, Debye-Ang):
   XX=            -31.1143   YY=            -56.2623   ZZ=            -84.1416
   XY=              0.1500   XZ=             -0.0000   YZ=             -0.0000

 Normal termination of Gaussian 16 at Wed Jul 27 12:33:02 2022.
