 Gaussian 16, Revision C.01,
 Gaussian 16:  ES64L-G16RevC.01  3-Jul-2019

 ---------------------------------------------------------------
 #n M062X/6-311++G(d,p) TD(NStates=1) EmpiricalDispersion=GD3 SP
 ---------------------------------------------------------------

 ----
 SP_4
 ----
 Symbolic Z-matrix:
 Charge =  1 Multiplicity = 1

                         Standard orientation:
 ---------------------------------------------------------------------
 Center     Atomic      Atomic             Coordinates (Angstroms)
 Number     Number       Type             X           Y           Z
 ---------------------------------------------------------------------
      1          6           0       -2.362254   -1.536670    0.000000
      2          6           0       -2.306145   -2.926321    0.000000
      3          6           0       -1.070829   -3.585569    0.000000
      4          6           0        0.078505   -2.876171    0.000000
      5          6           0        2.369897    1.484912    0.000000
      6          6           0        2.345788    2.942330    0.000000
      7          6           0        1.152496    3.619160    0.000000
      8          6           0       -0.014857    2.861403    0.000000
      9          6           0       -1.274319    0.699056    0.000000
     10          6           0        1.239067   -0.713762    0.000000
     11          6           0       -1.212503   -0.804945    0.000000
     12          6           0        0.047865   -1.451334    0.000000
     13          6           0        0.000000    1.409040    0.000000
     14          6           0        1.222401    0.727179    0.000000
     15          1           0       -3.317422   -1.026627    0.000000
     16          1           0       -3.227904   -3.490034    0.000000
     17          1           0       -1.033711   -4.665126    0.000000
     18          1           0        1.034279   -3.383602    0.000000
     19          1           0        2.190434   -1.227235    0.000000
     20          1           0        3.330514    0.984858    0.000000
     21          1           0        3.285175    3.479133    0.000000
     22          1           0        1.125685    4.698027    0.000000
     23          1           0       -0.975047    3.363734    0.000000
     24          1           0       -1.851335    1.088516    0.859585
     25          1           0       -1.851335    1.088516   -0.859585
 ---------------------------------------------------------------------

 SCF Done:  E(RM062X) =  -539.749206386     A.U. after   16 cycles

 Excitation energies and oscillator strengths:

 Excited State   1:      Singlet-A'     2.6004 eV  476.79 nm  f=0.0193  <S**2>=0.000
      47 -> 48         0.70333
 This state for optimization and/or second-order correction.
 Total Energy, E(TD-HF/TD-DFT) =  -539.653644336
 Copying the excited state density for this state as the 1-particle RhoCI density.

 The electronic state is 1-A'.
 Alpha  occ. eigenvalues --  -10.77580 -10.73706 -10.72860 -10.72778 -10.72097
 Alpha  occ. eigenvalues --  -10.71923 -10.71661 -10.71013 -10.70948 -10.70129
 Alpha  occ. eigenvalues --  -10.70003 -10.69809 -10.69768 -10.69442  -1.16593
 Alpha  occ. eigenvalues --   -1.12509  -1.06891  -1.05893  -1.01336  -1.00584
 Alpha  occ. eigenvalues --   -0.95458  -0.90997  -0.86480  -0.85872  -0.83803
 Alpha  occ. eigenvalues --   -0.78277  -0.76210  -0.74320  -0.69737  -0.69329
 Alpha  occ. eigenvalues --   -0.68341  -0.68078  -0.68074  -0.65333  -0.64345
 Alpha  occ. eigenvalues --   -0.62635  -0.61524  -0.60570  -0.59158  -0.59156
 Alpha  occ. eigenvalues --   -0.56934  -0.55406  -0.54366  -0.52419  -0.47561
 Alpha  occ. eigenvalues --   -0.46144  -0.43550
 Alpha virt. eigenvalues --   -0.26106  -0.14752  -0.14015  -0.12742  -0.11192
 Alpha virt. eigenvalues --   -0.10094  -0.09262  -0.07956  -0.07905  -0.07489
 Alpha virt. eigenvalues --   -0.07212  -0.07131  -0.05651  -0.05572  -0.05352

 Mulliken charges:
               1
     1  C    0.061571
     2  C   -0.414052
     3  C   -0.433702
     4  C    0.011174
     5  C    0.014887
     6  C   -0.443136
     7  C   -0.400660
     8  C    0.129087
     9  C   -0.337892
    10  C    0.085818
    11  C   -0.647695
    12  C    0.742132
    13  C   -0.612925
    14  C    0.626079
    15  H    0.238293
    16  H    0.261718
    17  H    0.250550
    18  H    0.226443
    19  H    0.189327
    20  H    0.217260
    21  H    0.246689
    22  H    0.251129
    23  H    0.235938
    24  H    0.250983
    25  H    0.250983
 Sum of Mulliken charges =   1.00000

 Dipole moment (field-independent basis, Debye):
    X=             -0.3609    Y=             -1.0201    Z=              0.0000  Tot=              1.0821
 Quadrupole moment (field-independent basis, Debye-Ang):
   XX=            -51.2114   YY=            -36.0752   ZZ=            -84.1256
   XY=             10.1466   XZ=              0.0000   YZ=             -0.0000

 Normal termination of Gaussian 16 at Wed Jul 27 13:13:31 2022.
