 Gaussian 16, Revision C.01,
 Gaussian 16:  ES64L-G16RevC.01  3-Jul-2019

 ---------------------------------------------------------------
 #n M062X/6-311++G(d,p) TD(NStates=1) EmpiricalDispersion=GD3 SP
 ---------------------------------------------------------------

 -----
 SP_16
 -----
 Symbolic Z-matrix:
 Charge =  1 Multiplicity = 1

                         Standard orientation:
 ---------------------------------------------------------------------
 Center     Atomic      Atomic             Coordinates (Angstroms)
 Number     Number       Type             X           Y           Z
 ---------------------------------------------------------------------
      1          6           0       -2.399073   -1.517175    0.000000
      2          6           0       -2.361775   -2.892324    0.000000
      3          6           0       -1.141815   -3.566441    0.000000
      4          6           0        0.035564   -2.864072    0.000000
      5          6           0        2.402719    1.456319    0.000000
      6          6           0        2.401168    2.893577    0.000000
      7          6           0        1.212319    3.590797    0.000000
      8          6           0        0.021885    2.840840    0.000000
      9          6           0       -1.261329    0.722304    0.000000
     10          6           0        1.247679   -0.697064    0.000000
     11          6           0       -1.201601   -0.797254    0.000000
     12          6           0        0.002698   -1.444459    0.000000
     13          6           0        0.000000    1.422647    0.000000
     14          6           0        1.251807    0.692865    0.000000
     15          1           0       -3.317772   -0.943572    0.000000
     16          1           0       -3.302881   -3.421500    0.000000
     17          1           0       -1.082498   -4.644762    0.000000
     18          1           0        0.958404   -3.428776    0.000000
     19          1           0        2.170943   -1.261324    0.000000
     20          1           0        3.332620    0.897748    0.000000
     21          1           0        3.329547    3.449660    0.000000
     22          1           0        1.225030    4.671527    0.000000
     23          1           0       -0.904059    3.407977    0.000000
     24          1           0       -1.835405    1.114832    0.859585
     25          1           0       -1.835405    1.114832   -0.859585
 ---------------------------------------------------------------------

 SCF Done:  E(RM062X) =  -539.748339462     A.U. after   15 cycles

 Excitation energies and oscillator strengths:

 Excited State   1:      Singlet-A'     2.7583 eV  449.50 nm  f=0.0303  <S**2>=0.000
      47 -> 48         0.70172
 This state for optimization and/or second-order correction.
 Total Energy, E(TD-HF/TD-DFT) =  -539.646973958
 Copying the excited state density for this state as the 1-particle RhoCI density.

 The electronic state is 1-A'.
 Alpha  occ. eigenvalues --  -10.77646 -10.73672 -10.72813 -10.72500 -10.72341
 Alpha  occ. eigenvalues --  -10.71995 -10.71376 -10.71016 -10.70764 -10.70611
 Alpha  occ. eigenvalues --  -10.70343 -10.70112 -10.69594 -10.69133  -1.16506
 Alpha  occ. eigenvalues --   -1.12536  -1.06964  -1.05875  -1.01307  -1.00369
 Alpha  occ. eigenvalues --   -0.95699  -0.91112  -0.86411  -0.85849  -0.83755
 Alpha  occ. eigenvalues --   -0.78397  -0.76057  -0.74364  -0.69916  -0.69041
 Alpha  occ. eigenvalues --   -0.68561  -0.68138  -0.68040  -0.64833  -0.64230
 Alpha  occ. eigenvalues --   -0.62993  -0.61690  -0.60183  -0.59585  -0.59175
 Alpha  occ. eigenvalues --   -0.56870  -0.55067  -0.54659  -0.52475  -0.46698
 Alpha  occ. eigenvalues --   -0.46152  -0.44334
 Alpha virt. eigenvalues --   -0.26107  -0.14832  -0.13947  -0.12710  -0.11183
 Alpha virt. eigenvalues --   -0.10097  -0.09234  -0.08000  -0.07936  -0.07472
 Alpha virt. eigenvalues --   -0.07207  -0.07134  -0.05647  -0.05588  -0.05349

 Mulliken charges:
               1
     1  C    0.053092
     2  C   -0.443998
     3  C   -0.439039
     4  C   -0.141124
     5  C    0.104828
     6  C   -0.422563
     7  C   -0.360941
     8  C    0.139301
     9  C   -0.375291
    10  C    0.056459
    11  C   -0.630627
    12  C    0.897645
    13  C   -0.640346
    14  C    0.581603
    15  H    0.234469
    16  H    0.256230
    17  H    0.243258
    18  H    0.226162
    19  H    0.190962
    20  H    0.216856
    21  H    0.253724
    22  H    0.256328
    23  H    0.241792
    24  H    0.250612
    25  H    0.250612
 Sum of Mulliken charges =   1.00000

 Dipole moment (field-independent basis, Debye):
    X=              0.3785    Y=              0.2917    Z=             -0.0000  Tot=              0.4778
 Quadrupole moment (field-independent basis, Debye-Ang):
   XX=            -51.3119   YY=            -36.1503   ZZ=            -84.1297
   XY=             10.0752   XZ=              0.0000   YZ=             -0.0000

 Normal termination of Gaussian 16 at Wed Jul 27 14:34:05 2022.
