 Gaussian 16, Revision C.01,
 Gaussian 16:  ES64L-G16RevC.01  3-Jul-2019

 ---------------------------------------------------------------
 #n M062X/6-311++G(d,p) TD(NStates=1) EmpiricalDispersion=GD3 SP
 ---------------------------------------------------------------

 ----
 SP_2
 ----
 Symbolic Z-matrix:
 Charge =  1 Multiplicity = 1

                         Standard orientation:
 ---------------------------------------------------------------------
 Center     Atomic      Atomic             Coordinates (Angstroms)
 Number     Number       Type             X           Y           Z
 ---------------------------------------------------------------------
      1          6           0       -2.371050   -1.545515    0.000000
      2          6           0       -2.326740   -2.935516    0.000000
      3          6           0       -1.094860   -3.584238    0.000000
      4          6           0        0.076326   -2.853918    0.000000
      5          6           0        2.389554    1.495533    0.000000
      6          6           0        2.360308    2.923128    0.000000
      7          6           0        1.156374    3.596921    0.000000
      8          6           0       -0.017276    2.849149    0.000000
      9          6           0       -1.277604    0.692870    0.000000
     10          6           0        1.250327   -0.692587    0.000000
     11          6           0       -1.201786   -0.797722    0.000000
     12          6           0        0.053208   -1.442786    0.000000
     13          6           0        0.000000    1.421957    0.000000
     14          6           0        1.226494    0.736382    0.000000
     15          1           0       -3.324102   -1.031094    0.000000
     16          1           0       -3.246602   -3.501563    0.000000
     17          1           0       -1.047759   -4.663729    0.000000
     18          1           0        1.029422   -3.366784    0.000000
     19          1           0        2.201946   -1.205577    0.000000
     20          1           0        3.347151    0.990225    0.000000
     21          1           0        3.294167    3.468245    0.000000
     22          1           0        1.126568    4.676048    0.000000
     23          1           0       -0.975009    3.355676    0.000000
     24          1           0       -1.872717    1.048303    0.859585
     25          1           0       -1.872717    1.048303   -0.859585
 ---------------------------------------------------------------------

 SCF Done:  E(RM062X) =  -539.758037569     A.U. after   15 cycles

 Excitation energies and oscillator strengths:

 Excited State   1:      Singlet-A'     2.7643 eV  448.51 nm  f=0.0249  <S**2>=0.000
      47 -> 48         0.70368
 This state for optimization and/or second-order correction.
 Total Energy, E(TD-HF/TD-DFT) =  -539.656449975
 Copying the excited state density for this state as the 1-particle RhoCI density.

 The electronic state is 1-A'.
 Alpha  occ. eigenvalues --  -10.77650 -10.73438 -10.73044 -10.72631 -10.72223
 Alpha  occ. eigenvalues --  -10.71503 -10.71465 -10.71209 -10.70986 -10.70560
 Alpha  occ. eigenvalues --  -10.70035 -10.69909 -10.69689 -10.69560  -1.16472
 Alpha  occ. eigenvalues --   -1.12475  -1.06933  -1.05761  -1.01318  -1.00274
 Alpha  occ. eigenvalues --   -0.95709  -0.91045  -0.86431  -0.85896  -0.83814
 Alpha  occ. eigenvalues --   -0.78375  -0.76066  -0.74396  -0.69594  -0.69266
 Alpha  occ. eigenvalues --   -0.68470  -0.68168  -0.68097  -0.64876  -0.64310
 Alpha  occ. eigenvalues --   -0.62949  -0.61795  -0.60190  -0.59501  -0.59104
 Alpha  occ. eigenvalues --   -0.56908  -0.55282  -0.54716  -0.52434  -0.46848
 Alpha  occ. eigenvalues --   -0.46095  -0.44255
 Alpha virt. eigenvalues --   -0.26091  -0.14689  -0.14078  -0.12768  -0.11181
 Alpha virt. eigenvalues --   -0.10088  -0.09236  -0.07977  -0.07957  -0.07478
 Alpha virt. eigenvalues --   -0.07205  -0.07143  -0.05645  -0.05580  -0.05336

 Mulliken charges:
               1
     1  C    0.077873
     2  C   -0.410625
     3  C   -0.437788
     4  C    0.011919
     5  C    0.016902
     6  C   -0.441522
     7  C   -0.403351
     8  C    0.108767
     9  C   -0.334642
    10  C    0.091766
    11  C   -0.642948
    12  C    0.714247
    13  C   -0.628595
    14  C    0.658589
    15  H    0.237711
    16  H    0.258646
    17  H    0.249606
    18  H    0.224070
    19  H    0.190190
    20  H    0.219875
    21  H    0.248064
    22  H    0.254007
    23  H    0.236789
    24  H    0.250225
    25  H    0.250225
 Sum of Mulliken charges =   1.00000

 Dipole moment (field-independent basis, Debye):
    X=             -0.0566    Y=             -0.4928    Z=              0.0000  Tot=              0.4960
 Quadrupole moment (field-independent basis, Debye-Ang):
   XX=            -50.9033   YY=            -36.4592   ZZ=            -84.1387
   XY=             10.3120   XZ=              0.0000   YZ=             -0.0000

 Normal termination of Gaussian 16 at Wed Jul 27 12:51:44 2022.
