 Gaussian 16, Revision C.01,
 Gaussian 16:  ES64L-G16RevC.01  3-Jul-2019

 ---------------------------------------------------------------
 #n M062X/6-311++G(d,p) TD(NStates=1) EmpiricalDispersion=GD3 SP
 ---------------------------------------------------------------

 -----
 SP_10
 -----
 Symbolic Z-matrix:
 Charge =  1 Multiplicity = 1

                         Standard orientation:
 ---------------------------------------------------------------------
 Center     Atomic      Atomic             Coordinates (Angstroms)
 Number     Number       Type             X           Y           Z
 ---------------------------------------------------------------------
      1          6           0        2.488635   -1.378373    0.000000
      2          6           0        3.687763   -0.694463    0.000000
      3          6           0        3.685343    0.693004    0.000000
      4          6           0        2.479183    1.395324    0.000000
      5          6           0       -2.447078    1.419599    0.000000
      6          6           0       -3.682266    0.734668    0.000000
      7          6           0       -3.715118   -0.649360    0.000000
      8          6           0       -2.496547   -1.342498    0.000000
      9          6           0       -0.018987   -1.453274    0.000000
     10          6           0       -0.000000    1.429222    0.000000
     11          6           0        1.264800   -0.672875    0.000000
     12          6           0        1.253575    0.704502    0.000000
     13          6           0       -1.259425   -0.681323    0.000000
     14          6           0       -1.221067    0.756919    0.000000
     15          1           0        2.439898   -2.460283    0.000000
     16          1           0        4.609209   -1.256638    0.000000
     17          1           0        4.604229    1.261492    0.000000
     18          1           0        2.521725    2.476581    0.000000
     19          1           0        0.037545    2.510069    0.000000
     20          1           0       -2.413310    2.502915    0.000000
     21          1           0       -4.614360    1.283333    0.000000
     22          1           0       -4.663898   -1.166425    0.000000
     23          1           0       -2.536129   -2.426470    0.000000
     24          1           0       -0.048891   -2.145504    0.859585
     25          1           0       -0.048891   -2.145504   -0.859585
 ---------------------------------------------------------------------

 SCF Done:  E(RM062X) =  -539.756262047     A.U. after   15 cycles

 Excitation energies and oscillator strengths:

 Excited State   1:      Singlet-A'     2.8171 eV  440.11 nm  f=0.0298  <S**2>=0.000
      47 -> 48         0.70287
 This state for optimization and/or second-order correction.
 Total Energy, E(TD-HF/TD-DFT) =  -539.652734190
 Copying the excited state density for this state as the 1-particle RhoCI density.

 The electronic state is 1-A'.
 Alpha  occ. eigenvalues --  -10.77630 -10.73654 -10.72801 -10.72601 -10.72234
 Alpha  occ. eigenvalues --  -10.71908 -10.71560 -10.70982 -10.70856 -10.70453
 Alpha  occ. eigenvalues --  -10.70275 -10.70018 -10.69667 -10.69248  -1.16462
 Alpha  occ. eigenvalues --   -1.12478  -1.06977  -1.05804  -1.01282  -1.00187
 Alpha  occ. eigenvalues --   -0.95794  -0.91101  -0.86396  -0.85879  -0.83782
 Alpha  occ. eigenvalues --   -0.78412  -0.76029  -0.74408  -0.69852  -0.69098
 Alpha  occ. eigenvalues --   -0.68500  -0.68119  -0.68070  -0.64844  -0.64149
 Alpha  occ. eigenvalues --   -0.63031  -0.61833  -0.60028  -0.59686  -0.59213
 Alpha  occ. eigenvalues --   -0.56827  -0.55228  -0.54659  -0.52467  -0.46616
 Alpha  occ. eigenvalues --   -0.46076  -0.44487
 Alpha virt. eigenvalues --   -0.26104  -0.14712  -0.14039  -0.12746  -0.11183
 Alpha virt. eigenvalues --   -0.10092  -0.09237  -0.07988  -0.07951  -0.07474
 Alpha virt. eigenvalues --   -0.07206  -0.07139  -0.05643  -0.05583  -0.05342

 Mulliken charges:
               1
     1  C    0.074466
     2  C   -0.432254
     3  C   -0.445855
     4  C   -0.081329
     5  C    0.081075
     6  C   -0.428816
     7  C   -0.376633
     8  C    0.113315
     9  C   -0.353947
    10  C    0.078206
    11  C   -0.633539
    12  C    0.798730
    13  C   -0.639412
    14  C    0.625438
    15  H    0.234910
    16  H    0.254785
    17  H    0.244659
    18  H    0.224027
    19  H    0.190623
    20  H    0.219979
    21  H    0.253005
    22  H    0.257783
    23  H    0.240803
    24  H    0.249991
    25  H    0.249991
 Sum of Mulliken charges =   1.00000

 Dipole moment (field-independent basis, Debye):
    X=             -0.5979    Y=              0.1919    Z=              0.0000  Tot=              0.6279
 Quadrupole moment (field-independent basis, Debye-Ang):
   XX=            -31.0987   YY=            -56.2841   ZZ=            -84.1353
   XY=              0.4141   XZ=             -0.0000   YZ=             -0.0000

 Normal termination of Gaussian 16 at Wed Jul 27 13:45:06 2022.
