 Gaussian 16, Revision C.01,
 Gaussian 16:  ES64L-G16RevC.01  3-Jul-2019

 ---------------------------------------------------------------
 #n M062X/6-311++G(d,p) TD(NStates=1) EmpiricalDispersion=GD3 SP
 ---------------------------------------------------------------

 -----
 SP_12
 -----
 Symbolic Z-matrix:
 Charge =  1 Multiplicity = 1

                         Standard orientation:
 ---------------------------------------------------------------------
 Center     Atomic      Atomic             Coordinates (Angstroms)
 Number     Number       Type             X           Y           Z
 ---------------------------------------------------------------------
      1          6           0       -2.379849   -1.520997    0.000000
      2          6           0       -2.329419   -2.902027    0.000000
      3          6           0       -1.101587   -3.575119    0.000000
      4          6           0        0.053926   -2.879615    0.000000
      5          6           0        2.380059    1.463074    0.000000
      6          6           0        2.371937    2.922693    0.000000
      7          6           0        1.186284    3.612990    0.000000
      8          6           0        0.008238    2.855116    0.000000
      9          6           0       -1.265111    0.715754    0.000000
     10          6           0        1.238587   -0.713892    0.000000
     11          6           0       -1.211205   -0.803615    0.000000
     12          6           0        0.018613   -1.451438    0.000000
     13          6           0        0.000000    1.410912    0.000000
     14          6           0        1.237895    0.702688    0.000000
     15          1           0       -3.314777   -0.975411    0.000000
     16          1           0       -3.263599   -3.444314    0.000000
     17          1           0       -1.056196   -4.653810    0.000000
     18          1           0        0.991781   -3.418381    0.000000
     19          1           0        2.173449   -1.257638    0.000000
     20          1           0        3.324227    0.930876    0.000000
     21          1           0        3.307340    3.466768    0.000000
     22          1           0        1.184202    4.692952    0.000000
     23          1           0       -0.933186    3.393801    0.000000
     24          1           0       -1.831725    1.123009    0.859585
     25          1           0       -1.831725    1.123009   -0.859585
 ---------------------------------------------------------------------

 SCF Done:  E(RM062X) =  -539.745828209     A.U. after   16 cycles

 Excitation energies and oscillator strengths:

 Excited State   1:      Singlet-A'     2.6236 eV  472.58 nm  f=0.0232  <S**2>=0.000
      47 -> 48         0.70319
 This state for optimization and/or second-order correction.
 Total Energy, E(TD-HF/TD-DFT) =  -539.649413892
 Copying the excited state density for this state as the 1-particle RhoCI density.

 The electronic state is 1-A'.
 Alpha  occ. eigenvalues --  -10.77660 -10.73337 -10.73206 -10.72698 -10.72152
 Alpha  occ. eigenvalues --  -10.71502 -10.71429 -10.71202 -10.71042 -10.70523
 Alpha  occ. eigenvalues --  -10.70079 -10.69861 -10.69770 -10.69424  -1.16579
 Alpha  occ. eigenvalues --   -1.12560  -1.06872  -1.05869  -1.01400  -1.00645
 Alpha  occ. eigenvalues --   -0.95459  -0.91001  -0.86497  -0.85860  -0.83794
 Alpha  occ. eigenvalues --   -0.78297  -0.76174  -0.74306  -0.69607  -0.69268
 Alpha  occ. eigenvalues --   -0.68506  -0.68152  -0.68100  -0.65064  -0.64490
 Alpha  occ. eigenvalues --   -0.62731  -0.61516  -0.60509  -0.59250  -0.58994
 Alpha  occ. eigenvalues --   -0.57034  -0.55207  -0.54579  -0.52416  -0.47349
 Alpha  occ. eigenvalues --   -0.46158  -0.43728
 Alpha virt. eigenvalues --   -0.26091  -0.14853  -0.13969  -0.12720  -0.11184
 Alpha virt. eigenvalues --   -0.10094  -0.09240  -0.07979  -0.07923  -0.07483
 Alpha virt. eigenvalues --   -0.07208  -0.07137  -0.05653  -0.05580  -0.05346

 Mulliken charges:
               1
     1  C    0.052096
     2  C   -0.436911
     3  C   -0.435141
     4  C   -0.070999
     5  C    0.071888
     6  C   -0.431283
     7  C   -0.377418
     8  C    0.146078
     9  C   -0.348634
    10  C    0.073779
    11  C   -0.649496
    12  C    0.829567
    13  C   -0.622298
    14  C    0.579639
    15  H    0.235722
    16  H    0.259935
    17  H    0.246540
    18  H    0.227110
    19  H    0.189931
    20  H    0.215420
    21  H    0.250057
    22  H    0.252842
    23  H    0.238517
    24  H    0.251530
    25  H    0.251530
 Sum of Mulliken charges =   1.00000

 Dipole moment (field-independent basis, Debye):
    X=             -0.0729    Y=             -0.4968    Z=              0.0000  Tot=              0.5021
 Quadrupole moment (field-independent basis, Debye-Ang):
   XX=            -51.4241   YY=            -36.0002   ZZ=            -84.1292
   XY=              9.9876   XZ=             -0.0000   YZ=              0.0000

 Normal termination of Gaussian 16 at Wed Jul 27 14:10:42 2022.
