 Gaussian 16, Revision C.01,
 Gaussian 16:  ES64L-G16RevC.01  3-Jul-2019

 ---------------------------------------------------------------
 #n M062X/6-311++G(d,p) TD(NStates=1) EmpiricalDispersion=GD3 SP
 ---------------------------------------------------------------

 -----
 SP_10
 -----
 Symbolic Z-matrix:
 Charge =  1 Multiplicity = 1

                         Standard orientation:
 ---------------------------------------------------------------------
 Center     Atomic      Atomic             Coordinates (Angstroms)
 Number     Number       Type             X           Y           Z
 ---------------------------------------------------------------------
      1          6           0       -2.388605   -1.529956    0.000000
      2          6           0       -2.349847   -2.911237    0.000000
      3          6           0       -1.125307   -3.573669    0.000000
      4          6           0        0.052180   -2.857341    0.000000
      5          6           0        2.399687    1.473723    0.000000
      6          6           0        2.386045    2.903561    0.000000
      7          6           0        1.189670    3.590814    0.000000
      8          6           0        0.005462    2.842888    0.000000
      9          6           0       -1.268502    0.709487    0.000000
     10          6           0        1.250111   -0.692723    0.000000
     11          6           0       -1.200371   -0.796601    0.000000
     12          6           0        0.024154   -1.442911    0.000000
     13          6           0        0.000000    1.423848    0.000000
     14          6           0        1.241991    0.711943    0.000000
     15          1           0       -3.321382   -0.980113    0.000000
     16          1           0       -3.282086   -3.455941    0.000000
     17          1           0       -1.069840   -4.652406    0.000000
     18          1           0        0.987318   -3.401419    0.000000
     19          1           0        2.185241   -1.235892    0.000000
     20          1           0        3.340797    0.936395    0.000000
     21          1           0        3.315973    3.456089    0.000000
     22          1           0        1.184507    4.671039    0.000000
     23          1           0       -0.933470    3.385647    0.000000
     24          1           0       -1.853529    1.082819    0.859585
     25          1           0       -1.853529    1.082819   -0.859585
 ---------------------------------------------------------------------

 SCF Done:  E(RM062X) =  -539.754943800     A.U. after   15 cycles

 Excitation energies and oscillator strengths:

 Excited State   1:      Singlet-A'     2.7777 eV  446.36 nm  f=0.0285  <S**2>=0.000
      47 -> 48         0.70289
 This state for optimization and/or second-order correction.
 Total Energy, E(TD-HF/TD-DFT) =  -539.652867003
 Copying the excited state density for this state as the 1-particle RhoCI density.

 The electronic state is 1-A'.
 Alpha  occ. eigenvalues --  -10.77665 -10.73450 -10.73043 -10.72438 -10.72426
 Alpha  occ. eigenvalues --  -10.71695 -10.71109 -10.71040 -10.70998 -10.70890
 Alpha  occ. eigenvalues --  -10.70177 -10.69898 -10.69765 -10.69349  -1.16475
 Alpha  occ. eigenvalues --   -1.12500  -1.06941  -1.05787  -1.01322  -1.00299
 Alpha  occ. eigenvalues --   -0.95719  -0.91068  -0.86425  -0.85881  -0.83795
 Alpha  occ. eigenvalues --   -0.78389  -0.76050  -0.74388  -0.69706  -0.69134
 Alpha  occ. eigenvalues --   -0.68537  -0.68150  -0.68114  -0.64778  -0.64312
 Alpha  occ. eigenvalues --   -0.63013  -0.61769  -0.60137  -0.59581  -0.59099
 Alpha  occ. eigenvalues --   -0.56909  -0.55144  -0.54783  -0.52446  -0.46711
 Alpha  occ. eigenvalues --   -0.46112  -0.44364
 Alpha virt. eigenvalues --   -0.26093  -0.14754  -0.14025  -0.12748  -0.11180
 Alpha virt. eigenvalues --   -0.10090  -0.09231  -0.07989  -0.07956  -0.07475
 Alpha virt. eigenvalues --   -0.07204  -0.07141  -0.05645  -0.05584  -0.05338

 Mulliken charges:
               1
     1  C    0.066891
     2  C   -0.432440
     3  C   -0.441690
     4  C   -0.068572
     5  C    0.073443
     6  C   -0.431060
     7  C   -0.379160
     8  C    0.123627
     9  C   -0.348222
    10  C    0.080196
    11  C   -0.642401
    12  C    0.800344
    13  C   -0.633937
    14  C    0.613154
    15  H    0.235370
    16  H    0.256866
    17  H    0.245772
    18  H    0.225075
    19  H    0.190527
    20  H    0.218411
    21  H    0.251599
    22  H    0.255740
    23  H    0.239668
    24  H    0.250399
    25  H    0.250399
 Sum of Mulliken charges =   1.00000

 Dipole moment (field-independent basis, Debye):
    X=              0.2325    Y=              0.0341    Z=              0.0000  Tot=              0.2349
 Quadrupole moment (field-independent basis, Debye-Ang):
   XX=            -51.0987   YY=            -36.3190   ZZ=            -84.1371
   XY=             10.1882   XZ=              0.0000   YZ=             -0.0000

 Normal termination of Gaussian 16 at Wed Jul 27 13:49:19 2022.
