 Gaussian 16, Revision C.01,
 Gaussian 16:  ES64L-G16RevC.01  3-Jul-2019

 ---------------------------------------------------------------
 #n M062X/6-311++G(d,p) TD(NStates=1) EmpiricalDispersion=GD3 SP
 ---------------------------------------------------------------

 ----
 SP_2
 ----
 Symbolic Z-matrix:
 Charge =  1 Multiplicity = 1

                         Standard orientation:
 ---------------------------------------------------------------------
 Center     Atomic      Atomic             Coordinates (Angstroms)
 Number     Number       Type             X           Y           Z
 ---------------------------------------------------------------------
      1          6           0       -2.357835   -1.540567    0.000000
      2          6           0       -2.300277   -2.932375    0.000000
      3          6           0       -1.063111   -3.588144    0.000000
      4          6           0        0.084651   -2.875277    0.000000
      5          6           0        2.367320    1.490370    0.000000
      6          6           0        2.339215    2.947211    0.000000
      7          6           0        1.144033    3.620657    0.000000
      8          6           0       -0.020659    2.862946    0.000000
      9          6           0       -1.276592    0.694860    0.000000
     10          6           0        1.239204   -0.713732    0.000000
     11          6           0       -1.212836   -0.805296    0.000000
     12          6           0        0.055183   -1.451245    0.000000
     13          6           0        0.000000    1.408590    0.000000
     14          6           0        1.218472    0.733271    0.000000
     15          1           0       -3.317978   -1.039463    0.000000
     16          1           0       -3.218881   -3.501419    0.000000
     17          1           0       -1.028054   -4.667954    0.000000
     18          1           0        1.044831   -3.374827    0.000000
     19          1           0        2.194627   -1.219595    0.000000
     20          1           0        3.331972    0.998395    0.000000
     21          1           0        3.279627    3.482218    0.000000
     22          1           0        1.111039    4.699195    0.000000
     23          1           0       -0.985452    3.356139    0.000000
     24          1           0       -1.856168    1.079845    0.859585
     25          1           0       -1.856168    1.079845   -0.859585
 ---------------------------------------------------------------------

 SCF Done:  E(RM062X) =  -539.749232759     A.U. after   16 cycles

 Excitation energies and oscillator strengths:

 Excited State   1:      Singlet-A'     2.5935 eV  478.05 nm  f=0.0184  <S**2>=0.000
      47 -> 48         0.70333
 This state for optimization and/or second-order correction.
 Total Energy, E(TD-HF/TD-DFT) =  -539.653922728
 Copying the excited state density for this state as the 1-particle RhoCI density.

 The electronic state is 1-A'.
 Alpha  occ. eigenvalues --  -10.77549 -10.73793 -10.72894 -10.72668 -10.72247
 Alpha  occ. eigenvalues --  -10.71861 -10.71778 -10.71005 -10.70832 -10.70195
 Alpha  occ. eigenvalues --  -10.69878 -10.69855 -10.69739 -10.69361  -1.16600
 Alpha  occ. eigenvalues --   -1.12498  -1.06904  -1.05915  -1.01311  -1.00567
 Alpha  occ. eigenvalues --   -0.95462  -0.91006  -0.86470  -0.85870  -0.83798
 Alpha  occ. eigenvalues --   -0.78275  -0.76219  -0.74323  -0.69833  -0.69312
 Alpha  occ. eigenvalues --   -0.68289  -0.68077  -0.68036  -0.65398  -0.64301
 Alpha  occ. eigenvalues --   -0.62610  -0.61519  -0.60588  -0.59221  -0.59138
 Alpha  occ. eigenvalues --   -0.56889  -0.55443  -0.54289  -0.52426  -0.47612
 Alpha  occ. eigenvalues --   -0.46144  -0.43503
 Alpha virt. eigenvalues --   -0.26114  -0.14728  -0.14020  -0.12741  -0.11195
 Alpha virt. eigenvalues --   -0.10096  -0.09269  -0.07952  -0.07896  -0.07490
 Alpha virt. eigenvalues --   -0.07214  -0.07128  -0.05650  -0.05570  -0.05355

 Mulliken charges:
               1
     1  C    0.063948
     2  C   -0.407904
     3  C   -0.432536
     4  C    0.027714
     5  C   -0.001301
     6  C   -0.445974
     7  C   -0.406094
     8  C    0.125029
     9  C   -0.339386
    10  C    0.085787
    11  C   -0.646708
    12  C    0.726090
    13  C   -0.610298
    14  C    0.641996
    15  H    0.239067
    16  H    0.262155
    17  H    0.251553
    18  H    0.226258
    19  H    0.189222
    20  H    0.217772
    21  H    0.245845
    22  H    0.250699
    23  H    0.235432
    24  H    0.250817
    25  H    0.250817
 Sum of Mulliken charges =   1.00000

 Dipole moment (field-independent basis, Debye):
    X=             -0.4310    Y=             -1.1505    Z=             -0.0000  Tot=              1.2286
 Quadrupole moment (field-independent basis, Debye-Ang):
   XX=            -51.1611   YY=            -36.0882   ZZ=            -84.1231
   XY=             10.1915   XZ=              0.0000   YZ=              0.0000

 Normal termination of Gaussian 16 at Wed Jul 27 12:58:58 2022.
