 Gaussian 16, Revision C.01,
 Gaussian 16:  ES64L-G16RevC.01  3-Jul-2019

 ---------------------------------------------------------------
 #n M062X/6-311++G(d,p) TD(NStates=1) EmpiricalDispersion=GD3 SP
 ---------------------------------------------------------------

 -----
 SP_18
 -----
 Symbolic Z-matrix:
 Charge =  1 Multiplicity = 1

                         Standard orientation:
 ---------------------------------------------------------------------
 Center     Atomic      Atomic             Coordinates (Angstroms)
 Number     Number       Type             X           Y           Z
 ---------------------------------------------------------------------
      1          6           0        2.485838   -1.390687    0.000000
      2          6           0        3.676548   -0.708988    0.000000
      3          6           0        3.685551    0.680019    0.000000
      4          6           0        2.491645    1.387796    0.000000
      5          6           0       -2.434543    1.426811    0.000000
      6          6           0       -3.681878    0.747692    0.000000
      7          6           0       -3.726100   -0.634512    0.000000
      8          6           0       -2.499106   -1.330200    0.000000
      9          6           0       -0.033293   -1.453084    0.000000
     10          6           0        0.000000    1.429282    0.000000
     11          6           0        1.267994   -0.668978    0.000000
     12          6           0        1.266054    0.684402    0.000000
     13          6           0       -1.256467   -0.685372    0.000000
     14          6           0       -1.207997    0.776639    0.000000
     15          1           0        2.403119   -2.471230    0.000000
     16          1           0        4.587241   -1.288318    0.000000
     17          1           0        4.599193    1.256750    0.000000
     18          1           0        2.563367    2.467769    0.000000
     19          1           0        0.066533    2.509670    0.000000
     20          1           0       -2.371567    2.510484    0.000000
     21          1           0       -4.619571    1.288347    0.000000
     22          1           0       -4.685109   -1.134101    0.000000
     23          1           0       -2.572699   -2.414447    0.000000
     24          1           0       -0.087991   -2.144923    0.859585
     25          1           0       -0.087991   -2.144923   -0.859585
 ---------------------------------------------------------------------

 SCF Done:  E(RM062X) =  -539.747315103     A.U. after   15 cycles

 Excitation energies and oscillator strengths:

 Excited State   1:      Singlet-A'     2.8042 eV  442.13 nm  f=0.0321  <S**2>=0.000
      47 -> 48         0.69966
 This state for optimization and/or second-order correction.
 Total Energy, E(TD-HF/TD-DFT) =  -539.644261110
 Copying the excited state density for this state as the 1-particle RhoCI density.

 The electronic state is 1-A'.
 Alpha  occ. eigenvalues --  -10.77556 -10.73949 -10.72698 -10.72453 -10.72338
 Alpha  occ. eigenvalues --  -10.72065 -10.71971 -10.70991 -10.70504 -10.70482
 Alpha  occ. eigenvalues --  -10.70323 -10.70048 -10.69431 -10.68959  -1.16505
 Alpha  occ. eigenvalues --   -1.12507  -1.07045  -1.05955  -1.01227  -1.00197
 Alpha  occ. eigenvalues --   -0.95817  -0.91196  -0.86350  -0.85827  -0.83709
 Alpha  occ. eigenvalues --   -0.78436  -0.76033  -0.74386  -0.70192  -0.69039
 Alpha  occ. eigenvalues --   -0.68502  -0.68157  -0.67822  -0.64968  -0.63960
 Alpha  occ. eigenvalues --   -0.62960  -0.61760  -0.60080  -0.59705  -0.59420
 Alpha  occ. eigenvalues --   -0.56722  -0.55173  -0.54352  -0.52529  -0.46589
 Alpha  occ. eigenvalues --   -0.46124  -0.44461
 Alpha virt. eigenvalues --   -0.26136  -0.14794  -0.13925  -0.12689  -0.11191
 Alpha virt. eigenvalues --   -0.10104  -0.09252  -0.08000  -0.07913  -0.07469
 Alpha virt. eigenvalues --   -0.07211  -0.07123  -0.05644  -0.05588  -0.05363

 Mulliken charges:
               1
     1  C    0.050375
     2  C   -0.441355
     3  C   -0.442165
     4  C   -0.183888
     5  C    0.116862
     6  C   -0.416785
     7  C   -0.350246
     8  C    0.130651
     9  C   -0.402531
    10  C    0.036207
    11  C   -0.598924
    12  C    0.946397
    13  C   -0.652434
    14  C    0.584733
    15  H    0.234229
    16  H    0.253757
    17  H    0.241335
    18  H    0.225705
    19  H    0.191334
    20  H    0.218242
    21  H    0.256073
    22  H    0.258766
    23  H    0.244003
    24  H    0.249830
    25  H    0.249830
 Sum of Mulliken charges =   1.00000

 Dipole moment (field-independent basis, Debye):
    X=             -1.0387    Y=              0.2005    Z=              0.0000  Tot=              1.0579
 Quadrupole moment (field-independent basis, Debye-Ang):
   XX=            -31.0683   YY=            -56.3298   ZZ=            -84.1213
   XY=              0.7737   XZ=             -0.0000   YZ=             -0.0000

 Normal termination of Gaussian 16 at Wed Jul 27 14:44:43 2022.
