 Gaussian 16, Revision C.01,
 Gaussian 16:  ES64L-G16RevC.01  3-Jul-2019

 ---------------------------------------------------------------
 #n M062X/6-311++G(d,p) TD(NStates=1) EmpiricalDispersion=GD3 SP
 ---------------------------------------------------------------

 -----
 SP_12
 -----
 Symbolic Z-matrix:
 Charge =  1 Multiplicity = 1

                         Standard orientation:
 ---------------------------------------------------------------------
 Center     Atomic      Atomic             Coordinates (Angstroms)
 Number     Number       Type             X           Y           Z
 ---------------------------------------------------------------------
      1          6           0       -2.390351   -1.525028    0.000000
      2          6           0       -2.350356   -2.904523    0.000000
      3          6           0       -1.126650   -3.571824    0.000000
      4          6           0        0.047673   -2.862456    0.000000
      5          6           0        2.397761    1.467229    0.000000
      6          6           0        2.388369    2.903448    0.000000
      7          6           0        1.195672    3.593990    0.000000
      8          6           0        0.010566    2.844058    0.000000
      9          6           0       -1.265975    0.714052    0.000000
     10          6           0        1.247760   -0.696986    0.000000
     11          6           0       -1.202270   -0.797780    0.000000
     12          6           0        0.017226   -1.444590    0.000000
     13          6           0        0.000000    1.421651    0.000000
     14          6           0        1.244227    0.705178    0.000000
     15          1           0       -3.319441   -0.968986    0.000000
     16          1           0       -3.285421   -3.444451    0.000000
     17          1           0       -1.071526   -4.650423    0.000000
     18          1           0        0.979709   -3.411686    0.000000
     19          1           0        2.179482   -1.246279    0.000000
     20          1           0        3.336129    0.924548    0.000000
     21          1           0        3.318627    3.455775    0.000000
     22          1           0        1.196058    4.674338    0.000000
     23          1           0       -0.925038    3.393218    0.000000
     24          1           0       -1.845249    1.097721    0.859585
     25          1           0       -1.845249    1.097721   -0.859585
 ---------------------------------------------------------------------

 SCF Done:  E(RM062X) =  -539.752409299     A.U. after   15 cycles

 Excitation energies and oscillator strengths:

 Excited State   1:      Singlet-A'     2.7547 eV  450.09 nm  f=0.0282  <S**2>=0.000
      47 -> 48         0.70266
 This state for optimization and/or second-order correction.
 Total Energy, E(TD-HF/TD-DFT) =  -539.651177133
 Copying the excited state density for this state as the 1-particle RhoCI density.

 The electronic state is 1-A'.
 Alpha  occ. eigenvalues --  -10.77666 -10.73480 -10.73020 -10.72451 -10.72411
 Alpha  occ. eigenvalues --  -10.71744 -10.71100 -10.71008 -10.70985 -10.70896
 Alpha  occ. eigenvalues --  -10.70211 -10.69941 -10.69730 -10.69298  -1.16492
 Alpha  occ. eigenvalues --   -1.12517  -1.06937  -1.05813  -1.01330  -1.00360
 Alpha  occ. eigenvalues --   -0.95683  -0.91070  -0.86431  -0.85872  -0.83787
 Alpha  occ. eigenvalues --   -0.78382  -0.76064  -0.74373  -0.69741  -0.69112
 Alpha  occ. eigenvalues --   -0.68547  -0.68136  -0.68119  -0.64796  -0.64338
 Alpha  occ. eigenvalues --   -0.62983  -0.61721  -0.60196  -0.59538  -0.59094
 Alpha  occ. eigenvalues --   -0.56921  -0.55113  -0.54759  -0.52449  -0.46771
 Alpha  occ. eigenvalues --   -0.46132  -0.44288
 Alpha virt. eigenvalues --   -0.26095  -0.14789  -0.13997  -0.12737  -0.11180
 Alpha virt. eigenvalues --   -0.10092  -0.09231  -0.07991  -0.07950  -0.07475
 Alpha virt. eigenvalues --   -0.07205  -0.07140  -0.05647  -0.05585  -0.05341

 Mulliken charges:
               1
     1  C    0.061299
     2  C   -0.436957
     3  C   -0.440428
     4  C   -0.088301
     5  C    0.082840
     6  C   -0.428812
     7  C   -0.373769
     8  C    0.131227
     9  C   -0.354254
    10  C    0.074209
    11  C   -0.642267
    12  C    0.829665
    13  C   -0.633890
    14  C    0.599477
    15  H    0.235102
    16  H    0.257119
    17  H    0.245172
    18  H    0.225675
    19  H    0.190579
    20  H    0.217535
    21  H    0.251995
    22  H    0.255491
    23  H    0.240092
    24  H    0.250601
    25  H    0.250601
 Sum of Mulliken charges =   1.00000

 Dipole moment (field-independent basis, Debye):
    X=              0.2310    Y=              0.0318    Z=             -0.0000  Tot=              0.2332
 Quadrupole moment (field-independent basis, Debye-Ang):
   XX=            -51.2060   YY=            -36.2300   ZZ=            -84.1349
   XY=             10.1233   XZ=              0.0000   YZ=             -0.0000

 Normal termination of Gaussian 16 at Wed Jul 27 14:04:54 2022.
