 Gaussian 16, Revision C.01,
 Gaussian 16:  ES64L-G16RevC.01  3-Jul-2019

 ---------------------------------------------------------------
 #n M062X/6-311++G(d,p) TD(NStates=1) EmpiricalDispersion=GD3 SP
 ---------------------------------------------------------------

 -----
 SP_14
 -----
 Symbolic Z-matrix:
 Charge =  1 Multiplicity = 1

                         Standard orientation:
 ---------------------------------------------------------------------
 Center     Atomic      Atomic             Coordinates (Angstroms)
 Number     Number       Type             X           Y           Z
 ---------------------------------------------------------------------
      1          6           0        2.488504   -1.379420    0.000000
      2          6           0        3.681826   -0.693379    0.000000
      3          6           0        3.683178    0.695665    0.000000
      4          6           0        2.484594    1.397446    0.000000
      5          6           0       -2.441700    1.417398    0.000000
      6          6           0       -3.684471    0.732039    0.000000
      7          6           0       -3.721070   -0.650356    0.000000
      8          6           0       -2.496662   -1.341452    0.000000
      9          6           0       -0.023934   -1.453236    0.000000
     10          6           0       -0.000000    1.429225    0.000000
     11          6           0        1.268682   -0.669431    0.000000
     12          6           0        1.259338    0.697138    0.000000
     13          6           0       -1.255599   -0.684825    0.000000
     14          6           0       -1.215193    0.764195    0.000000
     15          1           0        2.426090   -2.460822    0.000000
     16          1           0        4.599080   -1.262363    0.000000
     17          1           0        4.599044    1.268738    0.000000
     18          1           0        2.538413    2.478214    0.000000
     19          1           0        0.049425    2.509980    0.000000
     20          1           0       -2.396649    2.501028    0.000000
     21          1           0       -4.619657    1.276169    0.000000
     22          1           0       -4.673938   -1.160547    0.000000
     23          1           0       -2.549928   -2.425720    0.000000
     24          1           0       -0.068418   -2.145358    0.859585
     25          1           0       -0.068418   -2.145358   -0.859585
 ---------------------------------------------------------------------

 SCF Done:  E(RM062X) =  -539.752374849     A.U. after   15 cycles

 Excitation energies and oscillator strengths:

 Excited State   1:      Singlet-A'     2.8093 eV  441.34 nm  f=0.0312  <S**2>=0.000
      47 -> 48         0.70148
 This state for optimization and/or second-order correction.
 Total Energy, E(TD-HF/TD-DFT) =  -539.649135662
 Copying the excited state density for this state as the 1-particle RhoCI density.

 The electronic state is 1-A'.
 Alpha  occ. eigenvalues --  -10.77610 -10.73772 -10.72669 -10.72626 -10.72188
 Alpha  occ. eigenvalues --  -10.72088 -10.71690 -10.70989 -10.70697 -10.70374
 Alpha  occ. eigenvalues --  -10.70320 -10.70151 -10.69564 -10.69119  -1.16480
 Alpha  occ. eigenvalues --   -1.12495  -1.06998  -1.05863  -1.01265  -1.00209
 Alpha  occ. eigenvalues --   -0.95795  -0.91135  -0.86381  -0.85858  -0.83754
 Alpha  occ. eigenvalues --   -0.78420  -0.76031  -0.74396  -0.69990  -0.69052
 Alpha  occ. eigenvalues --   -0.68514  -0.68135  -0.67982  -0.64883  -0.64082
 Alpha  occ. eigenvalues --   -0.63015  -0.61792  -0.60050  -0.59695  -0.59281
 Alpha  occ. eigenvalues --   -0.56793  -0.55190  -0.54558  -0.52489  -0.46596
 Alpha  occ. eigenvalues --   -0.46101  -0.44480
 Alpha virt. eigenvalues --   -0.26115  -0.14758  -0.13986  -0.12722  -0.11186
 Alpha virt. eigenvalues --   -0.10096  -0.09241  -0.07995  -0.07937  -0.07472
 Alpha virt. eigenvalues --   -0.07208  -0.07134  -0.05644  -0.05586  -0.05350

 Mulliken charges:
               1
     1  C    0.063552
     2  C   -0.439142
     3  C   -0.444543
     4  C   -0.127570
     5  C    0.099947
     6  C   -0.423522
     7  C   -0.364382
     8  C    0.124157
     9  C   -0.372518
    10  C    0.062443
    11  C   -0.625763
    12  C    0.865661
    13  C   -0.643459
    14  C    0.603704
    15  H    0.234473
    16  H    0.254600
    17  H    0.243170
    18  H    0.225002
    19  H    0.190896
    20  H    0.218840
    21  H    0.254313
    22  H    0.257941
    23  H    0.242163
    24  H    0.250018
    25  H    0.250018
 Sum of Mulliken charges =   1.00000

 Dipole moment (field-independent basis, Debye):
    X=             -0.7441    Y=              0.1941    Z=              0.0000  Tot=              0.7690
 Quadrupole moment (field-independent basis, Debye-Ang):
   XX=            -31.1007   YY=            -56.3001   ZZ=            -84.1302
   XY=              0.6696   XZ=             -0.0000   YZ=             -0.0000

 Normal termination of Gaussian 16 at Wed Jul 27 14:15:02 2022.
