 Gaussian 16, Revision C.01,
 Gaussian 16:  ES64L-G16RevC.01  3-Jul-2019

 ---------------------------------------------------------------
 #n M062X/6-311++G(d,p) TD(NStates=1) EmpiricalDispersion=GD3 SP
 ---------------------------------------------------------------

 -----
 SP_16
 -----
 Symbolic Z-matrix:
 Charge =  1 Multiplicity = 1

                         Standard orientation:
 ---------------------------------------------------------------------
 Center     Atomic      Atomic             Coordinates (Angstroms)
 Number     Number       Type             X           Y           Z
 ---------------------------------------------------------------------
      1          6           0       -2.401688   -1.518200    0.000000
      2          6           0       -2.366970   -2.892948    0.000000
      3          6           0       -1.148019   -3.565590    0.000000
      4          6           0        0.034079   -2.859774    0.000000
      5          6           0        2.407133    1.457363    0.000000
      6          6           0        2.405195    2.888775    0.000000
      7          6           0        1.214574    3.586052    0.000000
      8          6           0        0.022398    2.838076    0.000000
      9          6           0       -1.261560    0.721860    0.000000
     10          6           0        1.250023   -0.692840    0.000000
     11          6           0       -1.199348   -0.795837    0.000000
     12          6           0        0.002388   -1.442740    0.000000
     13          6           0       -0.000000    1.425339    0.000000
     14          6           0        1.253380    0.693493    0.000000
     15          1           0       -3.318906   -0.942015    0.000000
     16          1           0       -3.308281   -3.421546    0.000000
     17          1           0       -1.086251   -4.643915    0.000000
     18          1           0        0.955445   -3.427063    0.000000
     19          1           0        2.172493   -1.258462    0.000000
     20          1           0        3.335564    0.896201    0.000000
     21          1           0        3.332302    3.446949    0.000000
     22          1           0        1.227886    4.666869    0.000000
     23          1           0       -0.902071    3.407801    0.000000
     24          1           0       -1.838851    1.108507    0.859585
     25          1           0       -1.838851    1.108507   -0.859585
 ---------------------------------------------------------------------

 SCF Done:  E(RM062X) =  -539.749176959     A.U. after   15 cycles

 Excitation energies and oscillator strengths:

 Excited State   1:      Singlet-A'     2.7810 eV  445.83 nm  f=0.0313  <S**2>=0.000
      47 -> 48         0.70122
 This state for optimization and/or second-order correction.
 Total Energy, E(TD-HF/TD-DFT) =  -539.646978494
 Copying the excited state density for this state as the 1-particle RhoCI density.

 The electronic state is 1-A'.
 Alpha  occ. eigenvalues --  -10.77630 -10.73736 -10.72729 -10.72557 -10.72272
 Alpha  occ. eigenvalues --  -10.72069 -10.71526 -10.71007 -10.70707 -10.70467
 Alpha  occ. eigenvalues --  -10.70375 -10.70154 -10.69562 -10.69101  -1.16497
 Alpha  occ. eigenvalues --   -1.12524  -1.06983  -1.05881  -1.01287  -1.00306
 Alpha  occ. eigenvalues --   -0.95743  -0.91130  -0.86395  -0.85848  -0.83749
 Alpha  occ. eigenvalues --   -0.78410  -0.76043  -0.74376  -0.69972  -0.69033
 Alpha  occ. eigenvalues --   -0.68551  -0.68141  -0.68000  -0.64852  -0.64147
 Alpha  occ. eigenvalues --   -0.63014  -0.61726  -0.60122  -0.59643  -0.59230
 Alpha  occ. eigenvalues --   -0.56831  -0.55102  -0.54606  -0.52486  -0.46626
 Alpha  occ. eigenvalues --   -0.46139  -0.44414
 Alpha virt. eigenvalues --   -0.26112  -0.14814  -0.13951  -0.12710  -0.11184
 Alpha virt. eigenvalues --   -0.10098  -0.09237  -0.08000  -0.07935  -0.07471
 Alpha virt. eigenvalues --   -0.07207  -0.07133  -0.05646  -0.05588  -0.05351

 Mulliken charges:
               1
     1  C    0.054700
     2  C   -0.443147
     3  C   -0.440526
     4  C   -0.145832
     5  C    0.106440
     6  C   -0.421870
     7  C   -0.359782
     8  C    0.135359
     9  C   -0.378672
    10  C    0.054923
    11  C   -0.626095
    12  C    0.899802
    13  C   -0.643015
    14  C    0.586344
    15  H    0.234403
    16  H    0.255539
    17  H    0.242925
    18  H    0.225875
    19  H    0.191032
    20  H    0.217419
    21  H    0.254217
    22  H    0.257000
    23  H    0.242221
    24  H    0.250370
    25  H    0.250370
 Sum of Mulliken charges =   1.00000

 Dipole moment (field-independent basis, Debye):
    X=              0.4531    Y=              0.4240    Z=             -0.0000  Tot=              0.6205
 Quadrupole moment (field-independent basis, Debye-Ang):
   XX=            -51.2540   YY=            -36.1918   ZZ=            -84.1290
   XY=             10.1193   XZ=              0.0000   YZ=             -0.0000

 Normal termination of Gaussian 16 at Wed Jul 27 14:32:41 2022.
