 Gaussian 16, Revision C.01,
 Gaussian 16:  ES64L-G16RevC.01  3-Jul-2019

 ---------------------------------------------------------------
 #n M062X/6-311++G(d,p) TD(NStates=1) EmpiricalDispersion=GD3 SP
 ---------------------------------------------------------------

 ----
 SP_4
 ----
 Symbolic Z-matrix:
 Charge =  1 Multiplicity = 1

                         Standard orientation:
 ---------------------------------------------------------------------
 Center     Atomic      Atomic             Coordinates (Angstroms)
 Number     Number       Type             X           Y           Z
 ---------------------------------------------------------------------
      1          6           0       -2.375450   -1.541637    0.000000
      2          6           0       -2.332546   -2.929458    0.000000
      3          6           0       -1.102489   -3.581618    0.000000
      4          6           0        0.070288   -2.854793    0.000000
      5          6           0        2.392109    1.490081    0.000000
      6          6           0        2.366764    2.918252    0.000000
      7          6           0        1.164708    3.595421    0.000000
      8          6           0       -0.011575    2.847601    0.000000
      9          6           0       -1.275345    0.697037    0.000000
     10          6           0        1.250262   -0.692619    0.000000
     11          6           0       -1.201427   -0.797431    0.000000
     12          6           0        0.045942   -1.442855    0.000000
     13          6           0        0.000000    1.422419    0.000000
     14          6           0        1.230401    0.730290    0.000000
     15          1           0       -3.323485   -1.018330    0.000000
     16          1           0       -3.255532   -3.490184    0.000000
     17          1           0       -1.053301   -4.660898    0.000000
     18          1           0        1.018938   -3.375490    0.000000
     19          1           0        2.197801   -1.213179    0.000000
     20          1           0        3.345629    0.976742    0.000000
     21          1           0        3.299622    3.465209    0.000000
     22          1           0        1.141063    4.674855    0.000000
     23          1           0       -0.964660    3.363215    0.000000
     24          1           0       -1.867962    1.056960    0.859585
     25          1           0       -1.867962    1.056960   -0.859585
 ---------------------------------------------------------------------

 SCF Done:  E(RM062X) =  -539.757753626     A.U. after   15 cycles

 Excitation energies and oscillator strengths:

 Excited State   1:      Singlet-A'     2.7686 eV  447.82 nm  f=0.0258  <S**2>=0.000
      47 -> 48         0.70359
 This state for optimization and/or second-order correction.
 Total Energy, E(TD-HF/TD-DFT) =  -539.656009941
 Copying the excited state density for this state as the 1-particle RhoCI density.

 The electronic state is 1-A'.
 Alpha  occ. eigenvalues --  -10.77660 -10.73342 -10.73148 -10.72586 -10.72277
 Alpha  occ. eigenvalues --  -10.71386 -10.71329 -10.71321 -10.70989 -10.70697
 Alpha  occ. eigenvalues --  -10.69976 -10.69968 -10.69644 -10.69603  -1.16470
 Alpha  occ. eigenvalues --   -1.12481  -1.06930  -1.05757  -1.01325  -1.00282
 Alpha  occ. eigenvalues --   -0.95709  -0.91044  -0.86433  -0.85895  -0.83814
 Alpha  occ. eigenvalues --   -0.78377  -0.76062  -0.74395  -0.69565  -0.69265
 Alpha  occ. eigenvalues --   -0.68493  -0.68182  -0.68099  -0.64830  -0.64336
 Alpha  occ. eigenvalues --   -0.62971  -0.61793  -0.60174  -0.59520  -0.59081
 Alpha  occ. eigenvalues --   -0.56922  -0.55244  -0.54760  -0.52433  -0.46812
 Alpha  occ. eigenvalues --   -0.46097  -0.44286
 Alpha virt. eigenvalues --   -0.26089  -0.14703  -0.14070  -0.12766  -0.11180
 Alpha virt. eigenvalues --   -0.10087  -0.09233  -0.07980  -0.07960  -0.07478
 Alpha virt. eigenvalues --   -0.07204  -0.07143  -0.05645  -0.05580  -0.05335

 Mulliken charges:
               1
     1  C    0.075213
     2  C   -0.416498
     3  C   -0.439182
     4  C   -0.005929
     5  C    0.032471
     6  C   -0.439077
     7  C   -0.397481
     8  C    0.112320
     9  C   -0.335413
    10  C    0.090757
    11  C   -0.643509
    12  C    0.731571
    13  C   -0.629591
    14  C    0.644995
    15  H    0.237032
    16  H    0.258204
    17  H    0.248647
    18  H    0.224319
    19  H    0.190251
    20  H    0.219490
    21  H    0.248951
    22  H    0.254444
    23  H    0.237439
    24  H    0.250288
    25  H    0.250288
 Sum of Mulliken charges =   1.00000

 Dipole moment (field-independent basis, Debye):
    X=              0.0149    Y=             -0.3607    Z=             -0.0000  Tot=              0.3610
 Quadrupole moment (field-independent basis, Debye-Ang):
   XX=            -50.9507   YY=            -36.4274   ZZ=            -84.1393
   XY=             10.2777   XZ=              0.0000   YZ=              0.0000

 Normal termination of Gaussian 16 at Wed Jul 27 13:06:17 2022.
