 Gaussian 16, Revision C.01,
 Gaussian 16:  ES64L-G16RevC.01  3-Jul-2019

 ---------------------------------------------------------------
 #n M062X/6-311++G(d,p) TD(NStates=1) EmpiricalDispersion=GD3 SP
 ---------------------------------------------------------------

 -----
 SP_12
 -----
 Symbolic Z-matrix:
 Charge =  1 Multiplicity = 1

                         Standard orientation:
 ---------------------------------------------------------------------
 Center     Atomic      Atomic             Coordinates (Angstroms)
 Number     Number       Type             X           Y           Z
 ---------------------------------------------------------------------
      1          6           0       -2.395594   -1.527065    0.000000
      2          6           0       -2.360788   -2.905774    0.000000
      3          6           0       -1.139118   -3.570152    0.000000
      4          6           0        0.044632   -2.853872    0.000000
      5          6           0        2.406604    1.469312    0.000000
      6          6           0        2.396503    2.893839    0.000000
      7          6           0        1.200269    3.584500    0.000000
      8          6           0        0.011660    2.838533    0.000000
      9          6           0       -1.266427    0.713185    0.000000
     10          6           0        1.252398   -0.688535    0.000000
     11          6           0       -1.197780   -0.794905    0.000000
     12          6           0        0.016572   -1.441168    0.000000
     13          6           0        0.000000    1.427025    0.000000
     14          6           0        1.247391    0.706432    0.000000
     15          1           0       -3.321753   -0.965822    0.000000
     16          1           0       -3.296286   -3.444538    0.000000
     17          1           0       -1.079110   -4.648728    0.000000
     18          1           0        0.973747   -3.408307    0.000000
     19          1           0        2.182551   -1.240581    0.000000
     20          1           0        3.342061    0.921417    0.000000
     21          1           0        3.324199    3.450321    0.000000
     22          1           0        1.201872    4.665040    0.000000
     23          1           0       -0.921024    3.392904    0.000000
     24          1           0       -1.852091    1.085080    0.859585
     25          1           0       -1.852091    1.085080   -0.859585
 ---------------------------------------------------------------------

 SCF Done:  E(RM062X) =  -539.754015098     A.U. after   15 cycles

 Excitation energies and oscillator strengths:

 Excited State   1:      Singlet-A'     2.7986 eV  443.02 nm  f=0.0303  <S**2>=0.000
      47 -> 48         0.70229
 This state for optimization and/or second-order correction.
 Total Energy, E(TD-HF/TD-DFT) =  -539.651168089
 Copying the excited state density for this state as the 1-particle RhoCI density.

 The electronic state is 1-A'.
 Alpha  occ. eigenvalues --  -10.77646 -10.73614 -10.72858 -10.72530 -10.72317
 Alpha  occ. eigenvalues --  -10.71892 -10.71398 -10.70995 -10.70868 -10.70602
 Alpha  occ. eigenvalues --  -10.70276 -10.70024 -10.69664 -10.69233  -1.16473
 Alpha  occ. eigenvalues --   -1.12498  -1.06966  -1.05816  -1.01298  -1.00253
 Alpha  occ. eigenvalues --   -0.95759  -0.91098  -0.86405  -0.85871  -0.83778
 Alpha  occ. eigenvalues --   -0.78406  -0.76037  -0.74394  -0.69839  -0.69077
 Alpha  occ. eigenvalues --   -0.68535  -0.68124  -0.68083  -0.64811  -0.64199
 Alpha  occ. eigenvalues --   -0.63036  -0.61785  -0.60074  -0.59655  -0.59175
 Alpha  occ. eigenvalues --   -0.56857  -0.55154  -0.54704  -0.52465  -0.46624
 Alpha  occ. eigenvalues --   -0.46105  -0.44451
 Alpha virt. eigenvalues --   -0.26102  -0.14757  -0.14008  -0.12737  -0.11181
 Alpha virt. eigenvalues --   -0.10093  -0.09234  -0.07992  -0.07950  -0.07473
 Alpha virt. eigenvalues --   -0.07205  -0.07138  -0.05645  -0.05585  -0.05343

 Mulliken charges:
               1
     1  C    0.065770
     2  C   -0.436594
     3  C   -0.443211
     4  C   -0.097095
     5  C    0.087668
     6  C   -0.427437
     7  C   -0.371924
     8  C    0.123937
     9  C   -0.358515
    10  C    0.072942
    11  C   -0.636489
    12  C    0.830254
    13  C   -0.638569
    14  C    0.608777
    15  H    0.234836
    16  H    0.255724
    17  H    0.244461
    18  H    0.225000
    19  H    0.190716
    20  H    0.218609
    21  H    0.252955
    22  H    0.256841
    23  H    0.240885
    24  H    0.250229
    25  H    0.250229
 Sum of Mulliken charges =   1.00000

 Dipole moment (field-independent basis, Debye):
    X=              0.3799    Y=              0.2978    Z=             -0.0000  Tot=              0.4827
 Quadrupole moment (field-independent basis, Debye-Ang):
   XX=            -51.0929   YY=            -36.3237   ZZ=            -84.1346
   XY=             10.2047   XZ=              0.0000   YZ=             -0.0000

 Normal termination of Gaussian 16 at Wed Jul 27 14:02:05 2022.
