 Gaussian 16, Revision C.01,
 Gaussian 16:  ES64L-G16RevC.01  3-Jul-2019

 ---------------------------------------------------------------
 #n M062X/6-311++G(d,p) TD(NStates=1) EmpiricalDispersion=GD3 SP
 ---------------------------------------------------------------

 -----
 SP_18
 -----
 Symbolic Z-matrix:
 Charge =  1 Multiplicity = 1

                         Standard orientation:
 ---------------------------------------------------------------------
 Center     Atomic      Atomic             Coordinates (Angstroms)
 Number     Number       Type             X           Y           Z
 ---------------------------------------------------------------------
      1          6           0       -2.392961   -1.509155    0.000000
      2          6           0       -2.346665   -2.883725    0.000000
      3          6           0       -1.124532   -3.567126    0.000000
      4          6           0        0.035501   -2.882060    0.000000
      5          6           0        2.387526    1.446692    0.000000
      6          6           0        2.391395    2.907851    0.000000
      7          6           0        1.211555    3.608175    0.000000
      8          6           0        0.025439    2.850280    0.000000
      9          6           0       -1.258087    0.728186    0.000000
     10          6           0        1.238302   -0.714002    0.000000
     11          6           0       -1.210267   -0.802694    0.000000
     12          6           0       -0.003300   -1.451248    0.000000
     13          6           0        0.000000    1.412389    0.000000
     14          6           0        1.249281    0.684196    0.000000
     15          1           0       -3.312352   -0.937137    0.000000
     16          1           0       -3.289948   -3.409841    0.000000
     17          1           0       -1.072907   -4.645322    0.000000
     18          1           0        0.959608   -3.444127    0.000000
     19          1           0        2.160489   -1.280270    0.000000
     20          1           0        3.319040    0.890569    0.000000
     21          1           0        3.323938    3.457469    0.000000
     22          1           0        1.228013    4.688725    0.000000
     23          1           0       -0.901543    3.416022    0.000000
     24          1           0       -1.816728    1.148675    0.859585
     25          1           0       -1.816728    1.148675   -0.859585
 ---------------------------------------------------------------------

 SCF Done:  E(RM062X) =  -539.739852536     A.U. after   16 cycles

 Excitation energies and oscillator strengths:

 Excited State   1:      Singlet-A'     2.6359 eV  470.36 nm  f=0.0265  <S**2>=0.000
      47 -> 48         0.70288
 This state for optimization and/or second-order correction.
 Total Energy, E(TD-HF/TD-DFT) =  -539.642983630
 Copying the excited state density for this state as the 1-particle RhoCI density.

 The electronic state is 1-A'.
 Alpha  occ. eigenvalues --  -10.77674 -10.73512 -10.73040 -10.72551 -10.72305
 Alpha  occ. eigenvalues --  -10.71804 -10.71063 -10.71060 -10.70923 -10.70869
 Alpha  occ. eigenvalues --  -10.70278 -10.70023 -10.69658 -10.69170  -1.16588
 Alpha  occ. eigenvalues --   -1.12603  -1.06894  -1.05927  -1.01399  -1.00687
 Alpha  occ. eigenvalues --   -0.95477  -0.91049  -0.86482  -0.85832  -0.83754
 Alpha  occ. eigenvalues --   -0.78322  -0.76150  -0.74292  -0.69801  -0.69117
 Alpha  occ. eigenvalues --   -0.68549  -0.68132  -0.68110  -0.64913  -0.64509
 Alpha  occ. eigenvalues --   -0.62788  -0.61479  -0.60477  -0.59333  -0.59013
 Alpha  occ. eigenvalues --   -0.57008  -0.55019  -0.54621  -0.52443  -0.47190
 Alpha  occ. eigenvalues --   -0.46180  -0.43849
 Alpha virt. eigenvalues --   -0.26098  -0.14930  -0.13907  -0.12681  -0.11184
 Alpha virt. eigenvalues --   -0.10100  -0.09233  -0.07999  -0.07917  -0.07477
 Alpha virt. eigenvalues --   -0.07208  -0.07133  -0.05655  -0.05587  -0.05353

 Mulliken charges:
               1
     1  C    0.041759
     2  C   -0.449921
     3  C   -0.431722
     4  C   -0.150049
     5  C    0.108274
     6  C   -0.421675
     7  C   -0.359332
     8  C    0.159716
     9  C   -0.375287
    10  C    0.049794
    11  C   -0.636543
    12  C    0.925347
    13  C   -0.632140
    14  C    0.551534
    15  H    0.234494
    16  H    0.258579
    17  H    0.243558
    18  H    0.227573
    19  H    0.190658
    20  H    0.214216
    21  H    0.252567
    22  H    0.254091
    23  H    0.240895
    24  H    0.251807
    25  H    0.251807
 Sum of Mulliken charges =   1.00000

 Dipole moment (field-independent basis, Debye):
    X=              0.1488    Y=             -0.1059    Z=             -0.0000  Tot=              0.1826
 Quadrupole moment (field-independent basis, Debye-Ang):
   XX=            -51.5940   YY=            -35.9205   ZZ=            -84.1249
   XY=              9.8913   XZ=              0.0000   YZ=             -0.0000

 Normal termination of Gaussian 16 at Wed Jul 27 14:54:55 2022.
