 Gaussian 16, Revision C.01,
 Gaussian 16:  ES64L-G16RevC.01  3-Jul-2019

 ---------------------------------------------------------------
 #n M062X/6-311++G(d,p) TD(NStates=1) EmpiricalDispersion=GD3 SP
 ---------------------------------------------------------------

 -----
 SP_12
 -----
 Symbolic Z-matrix:
 Charge =  1 Multiplicity = 1

                         Standard orientation:
 ---------------------------------------------------------------------
 Center     Atomic      Atomic             Coordinates (Angstroms)
 Number     Number       Type             X           Y           Z
 ---------------------------------------------------------------------
      1          6           0        2.489818   -1.373787    0.000000
      2          6           0        3.684441   -0.685561    0.000000
      3          6           0        3.681966    0.703486    0.000000
      4          6           0        2.481054    1.402258    0.000000
      5          6           0       -2.445266    1.412677    0.000000
      6          6           0       -3.685742    0.724209    0.000000
      7          6           0       -3.718530   -0.658266    0.000000
      8          6           0       -2.495421   -1.347080    0.000000
      9          6           0       -0.019255   -1.453292    0.000000
     10          6           0        0.000000    1.429206    0.000000
     11          6           0        1.269037   -0.669660    0.000000
     12          6           0        1.255948    0.703489    0.000000
     13          6           0       -1.255176   -0.684553    0.000000
     14          6           0       -1.218758    0.757955    0.000000
     15          1           0        2.437559   -2.455561    0.000000
     16          1           0        4.604948   -1.249356    0.000000
     17          1           0        4.598964    1.274741    0.000000
     18          1           0        2.525920    2.483373    0.000000
     19          1           0        0.040871    2.510097    0.000000
     20          1           0       -2.409176    2.496235    0.000000
     21          1           0       -4.619693    1.270088    0.000000
     22          1           0       -4.668300   -1.173742    0.000000
     23          1           0       -2.538524   -2.431299    0.000000
     24          1           0       -0.058630   -2.145527    0.859585
     25          1           0       -0.058630   -2.145527   -0.859585
 ---------------------------------------------------------------------

 SCF Done:  E(RM062X) =  -539.754405294     A.U. after   15 cycles

 Excitation energies and oscillator strengths:

 Excited State   1:      Singlet-A'     2.8108 eV  441.10 nm  f=0.0306  <S**2>=0.000
      47 -> 48         0.70220
 This state for optimization and/or second-order correction.
 Total Energy, E(TD-HF/TD-DFT) =  -539.651109523
 Copying the excited state density for this state as the 1-particle RhoCI density.

 The electronic state is 1-A'.
 Alpha  occ. eigenvalues --  -10.77630 -10.73680 -10.72776 -10.72587 -10.72247
 Alpha  occ. eigenvalues --  -10.71963 -10.71549 -10.70988 -10.70807 -10.70458
 Alpha  occ. eigenvalues --  -10.70309 -10.70064 -10.69632 -10.69200  -1.16470
 Alpha  occ. eigenvalues --   -1.12489  -1.06980  -1.05825  -1.01282  -1.00213
 Alpha  occ. eigenvalues --   -0.95785  -0.91111  -0.86394  -0.85870  -0.83772
 Alpha  occ. eigenvalues --   -0.78413  -0.76031  -0.74401  -0.69892  -0.69072
 Alpha  occ. eigenvalues --   -0.68518  -0.68126  -0.68048  -0.64843  -0.64140
 Alpha  occ. eigenvalues --   -0.63033  -0.61807  -0.60041  -0.59687  -0.59222
 Alpha  occ. eigenvalues --   -0.56826  -0.55191  -0.54646  -0.52473  -0.46603
 Alpha  occ. eigenvalues --   -0.46092  -0.44483
 Alpha virt. eigenvalues --   -0.26106  -0.14742  -0.14013  -0.12736  -0.11183
 Alpha virt. eigenvalues --   -0.10093  -0.09237  -0.07992  -0.07947  -0.07473
 Alpha virt. eigenvalues --   -0.07206  -0.07137  -0.05644  -0.05585  -0.05345

 Mulliken charges:
               1
     1  C    0.068208
     2  C   -0.436192
     3  C   -0.444773
     4  C   -0.101524
     5  C    0.089824
     6  C   -0.426635
     7  C   -0.371021
     8  C    0.120523
     9  C   -0.361068
    10  C    0.071816
    11  C   -0.632724
    12  C    0.830460
    13  C   -0.640147
    14  C    0.612448
    15  H    0.234721
    16  H    0.255035
    17  H    0.244099
    18  H    0.224678
    19  H    0.190743
    20  H    0.219145
    21  H    0.253427
    22  H    0.257522
    23  H    0.241279
    24  H    0.250077
    25  H    0.250077
 Sum of Mulliken charges =   1.00000

 Dipole moment (field-independent basis, Debye):
    X=             -0.5955    Y=              0.1916    Z=              0.0000  Tot=              0.6256
 Quadrupole moment (field-independent basis, Debye-Ang):
   XX=            -31.1120   YY=            -56.2884   ZZ=            -84.1337
   XY=              0.6172   XZ=              0.0000   YZ=             -0.0000

 Normal termination of Gaussian 16 at Wed Jul 27 14:00:39 2022.
