 Gaussian 16, Revision C.01,
 Gaussian 16:  ES64L-G16RevC.01  3-Jul-2019

 ---------------------------------------------------------------
 #n M062X/6-311++G(d,p) TD(NStates=1) EmpiricalDispersion=GD3 SP
 ---------------------------------------------------------------

 -----
 SP_10
 -----
 Symbolic Z-matrix:
 Charge =  1 Multiplicity = 1

                         Standard orientation:
 ---------------------------------------------------------------------
 Center     Atomic      Atomic             Coordinates (Angstroms)
 Number     Number       Type             X           Y           Z
 ---------------------------------------------------------------------
      1          6           0       -2.383352   -1.527934    0.000000
      2          6           0       -2.339379   -2.909986    0.000000
      3          6           0       -1.112782   -3.575315    0.000000
      4          6           0        0.055293   -2.865917    0.000000
      5          6           0        2.390832    1.471645    0.000000
      6          6           0        2.377837    2.913178    0.000000
      7          6           0        1.184990    3.600307    0.000000
      8          6           0        0.004306    2.848413    0.000000
      9          6           0       -1.268063    0.710338    0.000000
     10          6           0        1.245519   -0.701176    0.000000
     11          6           0       -1.204844   -0.799514    0.000000
     12          6           0        0.024842   -1.446326    0.000000
     13          6           0        0.000000    1.418479    0.000000
     14          6           0        1.238818    0.710693    0.000000
     15          1           0       -3.319040   -0.983322    0.000000
     16          1           0       -3.271169   -3.455864    0.000000
     17          1           0       -1.062183   -4.654100    0.000000
     18          1           0        0.993333   -3.404761    0.000000
     19          1           0        2.182209   -1.241569    0.000000
     20          1           0        3.334834    0.939559    0.000000
     21          1           0        3.310341    3.461578    0.000000
     22          1           0        1.178595    4.680332    0.000000
     23          1           0       -0.937526    3.385932    0.000000
     24          1           0       -1.846745    1.095456    0.859585
     25          1           0       -1.846745    1.095456   -0.859585
 ---------------------------------------------------------------------

 SCF Done:  E(RM062X) =  -539.752675462     A.U. after   15 cycles

 Excitation energies and oscillator strengths:

 Excited State   1:      Singlet-A'     2.7222 eV  455.45 nm  f=0.0258  <S**2>=0.000
      47 -> 48         0.70306
 This state for optimization and/or second-order correction.
 Total Energy, E(TD-HF/TD-DFT) =  -539.652634919
 Copying the excited state density for this state as the 1-particle RhoCI density.

 The electronic state is 1-A'.
 Alpha  occ. eigenvalues --  -10.77669 -10.73311 -10.73201 -10.72565 -10.72300
 Alpha  occ. eigenvalues --  -10.71544 -10.71190 -10.71155 -10.71011 -10.70817
 Alpha  occ. eigenvalues --  -10.70111 -10.69830 -10.69815 -10.69415  -1.16504
 Alpha  occ. eigenvalues --   -1.12518  -1.06915  -1.05802  -1.01348  -1.00416
 Alpha  occ. eigenvalues --   -0.95630  -0.91041  -0.86450  -0.85878  -0.83800
 Alpha  occ. eigenvalues --   -0.78359  -0.76090  -0.74362  -0.69632  -0.69197
 Alpha  occ. eigenvalues --   -0.68528  -0.68169  -0.68107  -0.64848  -0.64411
 Alpha  occ. eigenvalues --   -0.62916  -0.61691  -0.60282  -0.59445  -0.59048
 Alpha  occ. eigenvalues --   -0.56961  -0.55169  -0.54737  -0.52433  -0.46934
 Alpha  occ. eigenvalues --   -0.46133  -0.44136
 Alpha virt. eigenvalues --   -0.26090  -0.14783  -0.14010  -0.12744  -0.11180
 Alpha virt. eigenvalues --   -0.10091  -0.09233  -0.07985  -0.07948  -0.07478
 Alpha virt. eigenvalues --   -0.07205  -0.07141  -0.05648  -0.05582  -0.05339

 Mulliken charges:
               1
     1  C    0.061974
     2  C   -0.432213
     3  C   -0.439090
     4  C   -0.060184
     5  C    0.067742
     6  C   -0.432414
     7  C   -0.380837
     8  C    0.130772
     9  C   -0.345616
    10  C    0.080250
    11  C   -0.646268
    12  C    0.801564
    13  C   -0.628983
    14  C    0.603855
    15  H    0.235716
    16  H    0.258269
    17  H    0.246494
    18  H    0.225812
    19  H    0.190310
    20  H    0.217373
    21  H    0.250650
    22  H    0.254396
    23  H    0.238914
    24  H    0.250757
    25  H    0.250757
 Sum of Mulliken charges =   1.00000

 Dipole moment (field-independent basis, Debye):
    X=              0.0824    Y=             -0.2319    Z=             -0.0000  Tot=              0.2461
 Quadrupole moment (field-independent basis, Debye-Ang):
   XX=            -51.2089   YY=            -36.2110   ZZ=            -84.1356
   XY=             10.1158   XZ=             -0.0000   YZ=              0.0000

 Normal termination of Gaussian 16 at Wed Jul 27 13:52:08 2022.
