 Gaussian 16, Revision C.01,
 Gaussian 16:  ES64L-G16RevC.01  3-Jul-2019

 ---------------------------------------------------------------
 #n M062X/6-311++G(d,p) TD(NStates=1) EmpiricalDispersion=GD3 SP
 ---------------------------------------------------------------

 ----
 SP_8
 ----
 Symbolic Z-matrix:
 Charge =  1 Multiplicity = 1

                         Standard orientation:
 ---------------------------------------------------------------------
 Center     Atomic      Atomic             Coordinates (Angstroms)
 Number     Number       Type             X           Y           Z
 ---------------------------------------------------------------------
      1          6           0       -2.384228   -1.533858    0.000000
      2          6           0       -2.344100   -2.917319    0.000000
      3          6           0       -1.117712   -3.576333    0.000000
      4          6           0        0.058215   -2.856504    0.000000
      5          6           0        2.397175    1.479176    0.000000
      6          6           0        2.379632    2.908469    0.000000
      7          6           0        1.181356    3.592367    0.000000
      8          6           0       -0.000206    2.844470    0.000000
      9          6           0       -1.270795    0.705345    0.000000
     10          6           0        1.250154   -0.692687    0.000000
     11          6           0       -1.200720   -0.796871    0.000000
     12          6           0        0.031414   -1.442917    0.000000
     13          6           0        0.000000    1.423364    0.000000
     14          6           0        1.238150    0.718071    0.000000
     15          1           0       -3.322125   -0.992839    0.000000
     16          1           0       -3.273274   -3.467373    0.000000
     17          1           0       -1.064341   -4.655237    0.000000
     18          1           0        0.997887   -3.392808    0.000000
     19          1           0        2.189449   -1.228337    0.000000
     20          1           0        3.342452    0.949827    0.000000
     21          1           0        3.310525    3.459131    0.000000
     22          1           0        1.170033    4.672351    0.000000
     23          1           0       -0.943890    3.378201    0.000000
     24          1           0       -1.858368    1.074218    0.859585
     25          1           0       -1.858368    1.074218   -0.859585
 ---------------------------------------------------------------------

 SCF Done:  E(RM062X) =  -539.756207339     A.U. after   15 cycles

 Excitation energies and oscillator strengths:

 Excited State   1:      Singlet-A'     2.7753 eV  446.75 nm  f=0.0276  <S**2>=0.000
      47 -> 48         0.70321
 This state for optimization and/or second-order correction.
 Total Energy, E(TD-HF/TD-DFT) =  -539.654218443
 Copying the excited state density for this state as the 1-particle RhoCI density.

 The electronic state is 1-A'.
 Alpha  occ. eigenvalues --  -10.77668 -10.73351 -10.73144 -10.72490 -10.72378
 Alpha  occ. eigenvalues --  -10.71571 -10.71154 -10.71033 -10.70995 -10.70971
 Alpha  occ. eigenvalues --  -10.70110 -10.69832 -10.69813 -10.69433  -1.16471
 Alpha  occ. eigenvalues --   -1.12493  -1.06934  -1.05770  -1.01327  -1.00295
 Alpha  occ. eigenvalues --   -0.95714  -0.91055  -0.86430  -0.85888  -0.83805
 Alpha  occ. eigenvalues --   -0.78384  -0.76054  -0.74391  -0.69634  -0.69185
 Alpha  occ. eigenvalues --   -0.68526  -0.68173  -0.68108  -0.64778  -0.64340
 Alpha  occ. eigenvalues --   -0.63004  -0.61780  -0.60147  -0.59560  -0.59079
 Alpha  occ. eigenvalues --   -0.56922  -0.55171  -0.54797  -0.52439  -0.46744
 Alpha  occ. eigenvalues --   -0.46105  -0.44341
 Alpha virt. eigenvalues --   -0.26090  -0.14736  -0.14043  -0.12756  -0.11179
 Alpha virt. eigenvalues --   -0.10089  -0.09231  -0.07986  -0.07959  -0.07476
 Alpha virt. eigenvalues --   -0.07204  -0.07143  -0.05645  -0.05583  -0.05336

 Mulliken charges:
               1
     1  C    0.069835
     2  C   -0.427505
     3  C   -0.441173
     4  C   -0.046104
     5  C    0.060691
     6  C   -0.433851
     7  C   -0.385365
     8  C    0.119749
     9  C   -0.342137
    10  C    0.085080
    11  C   -0.643626
    12  C    0.774285
    13  C   -0.632112
    14  C    0.622677
    15  H    0.235855
    16  H    0.257312
    17  H    0.246729
    18  H    0.224821
    19  H    0.190417
    20  H    0.218759
    21  H    0.250720
    22  H    0.255311
    23  H    0.238884
    24  H    0.250375
    25  H    0.250375
 Sum of Mulliken charges =   1.00000

 Dipole moment (field-independent basis, Debye):
    X=              0.1595    Y=             -0.0972    Z=             -0.0000  Tot=              0.1868
 Quadrupole moment (field-independent basis, Debye-Ang):
   XX=            -51.0485   YY=            -36.3573   ZZ=            -84.1385
   XY=             10.2157   XZ=              0.0000   YZ=             -0.0000

 Normal termination of Gaussian 16 at Wed Jul 27 13:35:06 2022.
