 Gaussian 16, Revision C.01,
 Gaussian 16:  ES64L-G16RevC.01  3-Jul-2019

 ---------------------------------------------------------------
 #n M062X/6-311++G(d,p) TD(NStates=1) EmpiricalDispersion=GD3 SP
 ---------------------------------------------------------------

 ----
 SP_4
 ----
 Symbolic Z-matrix:
 Charge =  1 Multiplicity = 1

                         Standard orientation:
 ---------------------------------------------------------------------
 Center     Atomic      Atomic             Coordinates (Angstroms)
 Number     Number       Type             X           Y           Z
 ---------------------------------------------------------------------
      1          6           0       -2.372814   -1.540637    0.000000
      2          6           0       -2.327278   -2.928830    0.000000
      3          6           0       -1.096178   -3.582417    0.000000
      4          6           0        0.071903   -2.859070    0.000000
      5          6           0        2.387669    1.489046    0.000000
      6          6           0        2.362597    2.923064    0.000000
      7          6           0        1.162298    3.600165    0.000000
      8          6           0       -0.012207    2.850360    0.000000
      9          6           0       -1.275134    0.697446    0.000000
     10          6           0        1.248005   -0.696847    0.000000
     11          6           0       -1.203650   -0.798920    0.000000
     12          6           0        0.046313   -1.444550    0.000000
     13          6           0        0.000000    1.419742    0.000000
     14          6           0        1.228802    0.729665    0.000000
     15          1           0       -3.322279   -1.019973    0.000000
     16          1           0       -3.250023   -3.490148    0.000000
     17          1           0       -1.049410   -4.661744    0.000000
     18          1           0        1.021981   -3.377124    0.000000
     19          1           0        2.196310   -1.215997    0.000000
     20          1           0        3.342613    0.978355    0.000000
     21          1           0        3.296757    3.467980    0.000000
     22          1           0        1.138027    4.679487    0.000000
     23          1           0       -0.966717    3.363327    0.000000
     24          1           0       -1.864609    1.063270    0.859585
     25          1           0       -1.864609    1.063270   -0.859585
 ---------------------------------------------------------------------

 SCF Done:  E(RM062X) =  -539.756606514     A.U. after   15 cycles

 Excitation energies and oscillator strengths:

 Excited State   1:      Singlet-A'     2.7402 eV  452.47 nm  f=0.0243  <S**2>=0.000
      47 -> 48         0.70349
 This state for optimization and/or second-order correction.
 Total Energy, E(TD-HF/TD-DFT) =  -539.655906605
 Copying the excited state density for this state as the 1-particle RhoCI density.

 The electronic state is 1-A'.
 Alpha  occ. eigenvalues --  -10.77652 -10.73417 -10.73074 -10.72645 -10.72209
 Alpha  occ. eigenvalues --  -10.71474 -10.71444 -10.71255 -10.70993 -10.70553
 Alpha  occ. eigenvalues --  -10.70000 -10.69943 -10.69637 -10.69604  -1.16486
 Alpha  occ. eigenvalues --   -1.12486  -1.06923  -1.05773  -1.01328  -1.00330
 Alpha  occ. eigenvalues --   -0.95670  -0.91037  -0.86441  -0.85893  -0.83813
 Alpha  occ. eigenvalues --   -0.78363  -0.76083  -0.74383  -0.69577  -0.69282
 Alpha  occ. eigenvalues --   -0.68474  -0.68169  -0.68096  -0.64906  -0.64344
 Alpha  occ. eigenvalues --   -0.62913  -0.61754  -0.60249  -0.59450  -0.59086
 Alpha  occ. eigenvalues --   -0.56928  -0.55277  -0.54698  -0.52430  -0.46931
 Alpha  occ. eigenvalues --   -0.46109  -0.44164
 Alpha virt. eigenvalues --   -0.26091  -0.14712  -0.14061  -0.12764  -0.11181
 Alpha virt. eigenvalues --   -0.10088  -0.09237  -0.07977  -0.07953  -0.07479
 Alpha virt. eigenvalues --   -0.07205  -0.07142  -0.05646  -0.05579  -0.05337

 Mulliken charges:
               1
     1  C    0.072415
     2  C   -0.416024
     3  C   -0.438087
     4  C   -0.002307
     5  C    0.029011
     6  C   -0.439889
     7  C   -0.398134
     8  C    0.115645
     9  C   -0.335481
    10  C    0.090184
    11  C   -0.644658
    12  C    0.733822
    13  C   -0.626926
    14  C    0.641115
    15  H    0.237282
    16  H    0.258905
    17  H    0.249037
    18  H    0.224743
    19  H    0.190128
    20  H    0.219028
    21  H    0.248501
    22  H    0.253770
    23  H    0.237127
    24  H    0.250396
    25  H    0.250396
 Sum of Mulliken charges =   1.00000

 Dipole moment (field-independent basis, Debye):
    X=             -0.0596    Y=             -0.4939    Z=              0.0000  Tot=              0.4974
 Quadrupole moment (field-independent basis, Debye-Ang):
   XX=            -51.0041   YY=            -36.3641   ZZ=            -84.1376
   XY=             10.2471   XZ=             -0.0000   YZ=             -0.0000

 Normal termination of Gaussian 16 at Wed Jul 27 13:07:41 2022.
