 Gaussian 16, Revision C.01,
 Gaussian 16:  ES64L-G16RevC.01  3-Jul-2019

 ---------------------------------------------------------------
 #n M062X/6-311++G(d,p) TD(NStates=1) EmpiricalDispersion=GD3 SP
 ---------------------------------------------------------------

 -----
 SP_18
 -----
 Symbolic Z-matrix:
 Charge =  1 Multiplicity = 1

                         Standard orientation:
 ---------------------------------------------------------------------
 Center     Atomic      Atomic             Coordinates (Angstroms)
 Number     Number       Type             X           Y           Z
 ---------------------------------------------------------------------
      1          6           0        0.071604    2.853028    0.000000
      2          6           0       -1.083315    3.592025    0.000000
      3          6           0       -2.312535    2.952007    0.000000
      4          6           0       -2.381148    1.554107    0.000000
      5          6           0       -0.129464   -2.827512    0.000000
      6          6           0        1.043874   -3.606793    0.000000
      7          6           0        2.289157   -2.998202    0.000000
      8          6           0        2.337317   -1.587679    0.000000
      9          6           0        1.300323    0.649328    0.000000
     10          6           0       -1.259838   -0.675406    0.000000
     11          6           0        0.000000    1.428335    0.000000
     12          6           0       -1.192805    0.799139    0.000000
     13          6           0        1.196858   -0.794631    0.000000
     14          6           0       -0.124107   -1.434114    0.000000
     15          1           0        1.068565    3.278613    0.000000
     16          1           0       -0.994564    4.667503    0.000000
     17          1           0       -3.251648    3.487020    0.000000
     18          1           0       -3.372488    1.119052    0.000000
     19          1           0       -2.247857   -1.117741    0.000000
     20          1           0       -1.120010   -3.272030    0.000000
     21          1           0        1.008005   -4.688659    0.000000
     22          1           0        3.177919   -3.614479    0.000000
     23          1           0        3.333311   -1.152292    0.000000
     24          1           0        1.931619    0.935612    0.859585
     25          1           0        1.931619    0.935612   -0.859585
 ---------------------------------------------------------------------

 SCF Done:  E(RM062X) =  -539.746903038     A.U. after   15 cycles

 Excitation energies and oscillator strengths:

 Excited State   1:      Singlet-A'     2.7948 eV  443.62 nm  f=0.0285  <S**2>=0.000
      47 -> 48         0.70061
 This state for optimization and/or second-order correction.
 Total Energy, E(TD-HF/TD-DFT) =  -539.644195160
 Copying the excited state density for this state as the 1-particle RhoCI density.

 The electronic state is 1-A'.
 Alpha  occ. eigenvalues --  -10.77488 -10.74066 -10.72791 -10.72473 -10.72283
 Alpha  occ. eigenvalues --  -10.72282 -10.71913 -10.70974 -10.70566 -10.70403
 Alpha  occ. eigenvalues --  -10.70362 -10.69777 -10.69367 -10.68897  -1.16518
 Alpha  occ. eigenvalues --   -1.12486  -1.07085  -1.06001  -1.01187  -1.00128
 Alpha  occ. eigenvalues --   -0.95846  -0.91229  -0.86323  -0.85820  -0.83688
 Alpha  occ. eigenvalues --   -0.78441  -0.76046  -0.74392  -0.70319  -0.69078
 Alpha  occ. eigenvalues --   -0.68431  -0.68159  -0.67711  -0.65084  -0.63902
 Alpha  occ. eigenvalues --   -0.62837  -0.61783  -0.60155  -0.59633  -0.59548
 Alpha  occ. eigenvalues --   -0.56652  -0.55253  -0.54162  -0.52552  -0.46712
 Alpha  occ. eigenvalues --   -0.46118  -0.44349
 Alpha virt. eigenvalues --   -0.26155  -0.14753  -0.13928  -0.12680  -0.11198
 Alpha virt. eigenvalues --   -0.10107  -0.09268  -0.07993  -0.07894  -0.07471
 Alpha virt. eigenvalues --   -0.07214  -0.07114  -0.05643  -0.05585  -0.05372

 Mulliken charges:
               1
     1  C    0.050929
     2  C   -0.437280
     3  C   -0.445290
     4  C   -0.192859
     5  C    0.116330
     6  C   -0.415134
     7  C   -0.347174
     8  C    0.121569
     9  C   -0.413078
    10  C    0.028864
    11  C   -0.580953
    12  C    0.954064
    13  C   -0.657831
    14  C    0.593777
    15  H    0.234235
    16  H    0.252430
    17  H    0.240671
    18  H    0.225302
    19  H    0.191267
    20  H    0.219368
    21  H    0.257065
    22  H    0.260130
    23  H    0.244862
    24  H    0.249369
    25  H    0.249369
 Sum of Mulliken charges =   1.00000

 Dipole moment (field-independent basis, Debye):
    X=              0.4467    Y=             -1.2772    Z=              0.0000  Tot=              1.3530
 Quadrupole moment (field-independent basis, Debye-Ang):
   XX=            -50.2929   YY=            -37.0346   ZZ=            -84.1153
   XY=            -10.8227   XZ=              0.0000   YZ=              0.0000

 Normal termination of Gaussian 16 at Wed Jul 27 14:41:32 2022.
