 Gaussian 16, Revision C.01,
 Gaussian 16:  ES64L-G16RevC.01  3-Jul-2019

 ---------------------------------------------------------------
 #n M062X/6-311++G(d,p) TD(NStates=1) EmpiricalDispersion=GD3 SP
 ---------------------------------------------------------------

 ----
 SP_6
 ----
 Symbolic Z-matrix:
 Charge =  1 Multiplicity = 1

                         Standard orientation:
 ---------------------------------------------------------------------
 Center     Atomic      Atomic             Coordinates (Angstroms)
 Number     Number       Type             X           Y           Z
 ---------------------------------------------------------------------
      1          6           0        2.421387    1.492603    0.000000
      2          6           0        2.418636    2.877048    0.000000
      3          6           0        1.208055    3.551748    0.000000
      4          6           0        0.000034    2.839113    0.000000
      5          6           0       -2.442318   -1.439144    0.000000
      6          6           0       -2.448323   -2.844675    0.000000
      7          6           0       -1.255262   -3.550014    0.000000
      8          6           0       -0.054418   -2.834486    0.000000
      9          6           0        1.259397   -0.725411    0.000000
     10          6           0       -1.245298    0.701357    0.000000
     11          6           0        1.208055    0.766768    0.000000
     12          6           0       -0.007923    1.436564    0.000000
     13          6           0       -0.029316   -1.433315    0.000000
     14          6           0       -1.255262   -0.701180    0.000000
     15          1           0        3.347301    0.930888    0.000000
     16          1           0        3.356764    3.411035    0.000000
     17          1           0        1.169121    4.631741    0.000000
     18          1           0       -0.927158    3.397193    0.000000
     19          1           0       -2.174534    1.254162    0.000000
     20          1           0       -3.374914   -0.888097    0.000000
     21          1           0       -3.386224   -3.382659    0.000000
     22          1           0       -1.262334   -4.630245    0.000000
     23          1           0        0.877088   -3.388839    0.000000
     24          1           0        1.855115   -1.078510    0.859585
     25          1           0        1.855115   -1.078510   -0.859585
 ---------------------------------------------------------------------

 SCF Done:  E(RM062X) =  -539.758759816     A.U. after   15 cycles

 Excitation energies and oscillator strengths:

 Excited State   1:      Singlet-A'     2.8195 eV  439.74 nm  f=0.0287  <S**2>=0.000
      47 -> 48         0.70380
 This state for optimization and/or second-order correction.
 Total Energy, E(TD-HF/TD-DFT) =  -539.655144847
 Copying the excited state density for this state as the 1-particle RhoCI density.

 The electronic state is 1-A'.
 Alpha  occ. eigenvalues --  -10.77646 -10.73533 -10.72932 -10.72574 -10.72278
 Alpha  occ. eigenvalues --  -10.71730 -10.71429 -10.71018 -10.70978 -10.70586
 Alpha  occ. eigenvalues --  -10.70174 -10.69886 -10.69769 -10.69378  -1.16451
 Alpha  occ. eigenvalues --   -1.12468  -1.06960  -1.05763  -1.01296  -1.00179
 Alpha  occ. eigenvalues --   -0.95789  -0.91076  -0.86408  -0.85893  -0.83802
 Alpha  occ. eigenvalues --   -0.78404  -0.76030  -0.74415  -0.69722  -0.69159
 Alpha  occ. eigenvalues --   -0.68492  -0.68135  -0.68108  -0.64808  -0.64210
 Alpha  occ. eigenvalues --   -0.63041  -0.61856  -0.60023  -0.59671  -0.59156
 Alpha  occ. eigenvalues --   -0.56859  -0.55245  -0.54737  -0.52451  -0.46636
 Alpha  occ. eigenvalues --   -0.46063  -0.44483
 Alpha virt. eigenvalues --   -0.26096  -0.14680  -0.14077  -0.12763  -0.11180
 Alpha virt. eigenvalues --   -0.10088  -0.09234  -0.07983  -0.07961  -0.07475
 Alpha virt. eigenvalues --   -0.07204  -0.07142  -0.05643  -0.05582  -0.05337

 Mulliken charges:
               1
     1  C    0.083843
     2  C   -0.423367
     3  C   -0.445070
     4  C   -0.040959
     5  C    0.059331
     6  C   -0.433420
     7  C   -0.388480
     8  C    0.102816
     9  C   -0.341646
    10  C    0.087869
    11  C   -0.635167
    12  C    0.743659
    13  C   -0.638133
    14  C    0.648805
    15  H    0.235552
    16  H    0.254976
    17  H    0.246122
    18  H    0.222998
    19  H    0.190462
    20  H    0.221086
    21  H    0.251648
    22  H    0.257612
    23  H    0.239503
    24  H    0.249979
    25  H    0.249979
 Sum of Mulliken charges =   1.00000

 Dipole moment (field-independent basis, Debye):
    X=             -0.3868    Y=             -0.2993    Z=              0.0000  Tot=              0.4891
 Quadrupole moment (field-independent basis, Debye-Ang):
   XX=            -50.3462   YY=            -37.0273   ZZ=            -84.1388
   XY=             10.6804   XZ=              0.0000   YZ=             -0.0000

 Normal termination of Gaussian 16 at Wed Jul 27 13:14:56 2022.
