 Gaussian 16, Revision C.01,
 Gaussian 16:  ES64L-G16RevC.01  3-Jul-2019

 ---------------------------------------------------------------
 #n M062X/6-311++G(d,p) TD(NStates=1) EmpiricalDispersion=GD3 SP
 ---------------------------------------------------------------

 -----
 SP_16
 -----
 Symbolic Z-matrix:
 Charge =  1 Multiplicity = 1

                         Standard orientation:
 ---------------------------------------------------------------------
 Center     Atomic      Atomic             Coordinates (Angstroms)
 Number     Number       Type             X           Y           Z
 ---------------------------------------------------------------------
      1          6           0        2.484624   -1.395275    0.000000
      2          6           0        3.679813   -0.717904    0.000000
      3          6           0        3.688861    0.669517    0.000000
      4          6           0        2.489731    1.380873    0.000000
      5          6           0       -2.436313    1.433741    0.000000
      6          6           0       -3.678335    0.758129    0.000000
      7          6           0       -3.722631   -0.625622    0.000000
      8          6           0       -2.500200   -1.325621    0.000000
      9          6           0       -0.033025   -1.453058    0.000000
     10          6           0       -0.000000    1.429316    0.000000
     11          6           0        1.263755   -0.672170    0.000000
     12          6           0        1.263667    0.685420    0.000000
     13          6           0       -1.260712   -0.682120    0.000000
     14          6           0       -1.210292    0.775606    0.000000
     15          1           0        2.405428   -2.475931    0.000000
     16          1           0        4.591438   -1.295607    0.000000
     17          1           0        4.604394    1.243483    0.000000
     18          1           0        2.559129    2.460965    0.000000
     19          1           0        0.063206    2.509646    0.000000
     20          1           0       -2.375660    2.517150    0.000000
     21          1           0       -4.614175    1.301571    0.000000
     22          1           0       -4.680642   -1.126797    0.000000
     23          1           0       -2.570272   -2.409600    0.000000
     24          1           0       -0.078251   -2.144934    0.859585
     25          1           0       -0.078251   -2.144934   -0.859585
 ---------------------------------------------------------------------

 SCF Done:  E(RM062X) =  -539.750008373     A.U. after   15 cycles

 Excitation energies and oscillator strengths:

 Excited State   1:      Singlet-A'     2.8080 eV  441.53 nm  f=0.0305  <S**2>=0.000
      47 -> 48         0.70075
 This state for optimization and/or second-order correction.
 Total Energy, E(TD-HF/TD-DFT) =  -539.646814564
 Copying the excited state density for this state as the 1-particle RhoCI density.

 The electronic state is 1-A'.
 Alpha  occ. eigenvalues --  -10.77557 -10.73923 -10.72713 -10.72477 -10.72282
 Alpha  occ. eigenvalues --  -10.72053 -10.71985 -10.70983 -10.70528 -10.70471
 Alpha  occ. eigenvalues --  -10.70277 -10.70045 -10.69465 -10.69007  -1.16495
 Alpha  occ. eigenvalues --   -1.12491  -1.07038  -1.05925  -1.01227  -1.00168
 Alpha  occ. eigenvalues --   -0.95824  -0.91179  -0.86354  -0.85840  -0.83724
 Alpha  occ. eigenvalues --   -0.78432  -0.76034  -0.74396  -0.70152  -0.69056
 Alpha  occ. eigenvalues --   -0.68477  -0.68147  -0.67855  -0.64978  -0.63981
 Alpha  occ. eigenvalues --   -0.62946  -0.61791  -0.60082  -0.59682  -0.59409
 Alpha  occ. eigenvalues --   -0.56723  -0.55226  -0.54374  -0.52518  -0.46628
 Alpha  occ. eigenvalues --   -0.46105  -0.44443
 Alpha virt. eigenvalues --   -0.26133  -0.14757  -0.13960  -0.12703  -0.11191
 Alpha virt. eigenvalues --   -0.10101  -0.09253  -0.07995  -0.07918  -0.07471
 Alpha virt. eigenvalues --   -0.07211  -0.07126  -0.05643  -0.05585  -0.05360

 Mulliken charges:
               1
     1  C    0.058986
     2  C   -0.439640
     3  C   -0.445264
     4  C   -0.159593
     5  C    0.109810
     6  C   -0.419397
     7  C   -0.356268
     8  C    0.123578
     9  C   -0.390528
    10  C    0.048035
    11  C   -0.608213
    12  C    0.907058
    13  C   -0.649906
    14  C    0.598707
    15  H    0.234279
    16  H    0.253495
    17  H    0.241906
    18  H    0.225097
    19  H    0.191076
    20  H    0.219096
    21  H    0.255683
    22  H    0.259038
    23  H    0.243493
    24  H    0.249736
    25  H    0.249736
 Sum of Mulliken charges =   1.00000

 Dipole moment (field-independent basis, Debye):
    X=             -1.0418    Y=              0.2009    Z=              0.0000  Tot=              1.0610
 Quadrupole moment (field-independent basis, Debye-Ang):
   XX=            -31.0493   YY=            -56.3219   ZZ=            -84.1238
   XY=              0.5704   XZ=             -0.0000   YZ=             -0.0000

 Normal termination of Gaussian 16 at Wed Jul 27 14:28:23 2022.
