 Gaussian 16, Revision C.01,
 Gaussian 16:  ES64L-G16RevC.01  3-Jul-2019

 ---------------------------------------------------------------
 #n M062X/6-311++G(d,p) TD(NStates=1) EmpiricalDispersion=GD3 SP
 ---------------------------------------------------------------

 -----
 SP_12
 -----
 Symbolic Z-matrix:
 Charge =  1 Multiplicity = 1

                         Standard orientation:
 ---------------------------------------------------------------------
 Center     Atomic      Atomic             Coordinates (Angstroms)
 Number     Number       Type             X           Y           Z
 ---------------------------------------------------------------------
      1          6           0       -2.385103   -1.523006    0.000000
      2          6           0       -2.339899   -2.903275    0.000000
      3          6           0       -1.114139   -3.573480    0.000000
      4          6           0        0.050771   -2.871038    0.000000
      5          6           0        2.388912    1.465150    0.000000
      6          6           0        2.380181    2.913066    0.000000
      7          6           0        1.191010    3.603486    0.000000
      8          6           0        0.009426    2.849585    0.000000
      9          6           0       -1.265536    0.714909    0.000000
     10          6           0        1.243156   -0.705438    0.000000
     11          6           0       -1.206745   -0.800683    0.000000
     12          6           0        0.017907   -1.448014    0.000000
     13          6           0        0.000000    1.416280    0.000000
     14          6           0        1.241062    0.703930    0.000000
     15          1           0       -3.317115   -0.972182    0.000000
     16          1           0       -3.274525   -3.444377    0.000000
     17          1           0       -1.063888   -4.652117    0.000000
     18          1           0        0.985720   -3.415044    0.000000
     19          1           0        2.176448   -1.251965    0.000000
     20          1           0        3.330184    0.927701    0.000000
     21          1           0        3.313007    3.461258    0.000000
     22          1           0        1.190168    4.683642    0.000000
     23          1           0       -0.929092    3.393517    0.000000
     24          1           0       -1.838460    1.110364    0.859585
     25          1           0       -1.838460    1.110364   -0.859585
 ---------------------------------------------------------------------

 SCF Done:  E(RM062X) =  -539.749682906     A.U. after   16 cycles

 Excitation energies and oscillator strengths:

 Excited State   1:      Singlet-A'     2.6938 eV  460.26 nm  f=0.0256  <S**2>=0.000
      47 -> 48         0.70299
 This state for optimization and/or second-order correction.
 Total Energy, E(TD-HF/TD-DFT) =  -539.650688440
 Copying the excited state density for this state as the 1-particle RhoCI density.

 The electronic state is 1-A'.
 Alpha  occ. eigenvalues --  -10.77670 -10.73344 -10.73180 -10.72578 -10.72285
 Alpha  occ. eigenvalues --  -10.71589 -10.71196 -10.71097 -10.71024 -10.70808
 Alpha  occ. eigenvalues --  -10.70145 -10.69857 -10.69795 -10.69362  -1.16527
 Alpha  occ. eigenvalues --   -1.12538  -1.06905  -1.05830  -1.01363  -1.00494
 Alpha  occ. eigenvalues --   -0.95581  -0.91038  -0.86461  -0.85868  -0.83792
 Alpha  occ. eigenvalues --   -0.78345  -0.76110  -0.74343  -0.69662  -0.69180
 Alpha  occ. eigenvalues --   -0.68535  -0.68159  -0.68111  -0.64879  -0.64446
 Alpha  occ. eigenvalues --   -0.62872  -0.61631  -0.60348  -0.59397  -0.59032
 Alpha  occ. eigenvalues --   -0.56981  -0.55144  -0.54704  -0.52432  -0.47028
 Alpha  occ. eigenvalues --   -0.46148  -0.44034
 Alpha virt. eigenvalues --   -0.26091  -0.14821  -0.13984  -0.12731  -0.11181
 Alpha virt. eigenvalues --   -0.10092  -0.09233  -0.07987  -0.07941  -0.07478
 Alpha virt. eigenvalues --   -0.07206  -0.07139  -0.05650  -0.05583  -0.05342

 Mulliken charges:
               1
     1  C    0.056716
     2  C   -0.437040
     3  C   -0.437739
     4  C   -0.079570
     5  C    0.077535
     6  C   -0.430089
     7  C   -0.375594
     8  C    0.138606
     9  C   -0.350977
    10  C    0.074456
    11  C   -0.646491
    12  C    0.829486
    13  C   -0.628526
    14  C    0.589715
    15  H    0.235400
    16  H    0.258524
    17  H    0.245866
    18  H    0.226381
    19  H    0.190317
    20  H    0.216469
    21  H    0.251028
    22  H    0.254156
    23  H    0.239301
    24  H    0.251035
    25  H    0.251035
 Sum of Mulliken charges =   1.00000

 Dipole moment (field-independent basis, Debye):
    X=              0.0799    Y=             -0.2333    Z=             -0.0000  Tot=              0.2466
 Quadrupole moment (field-independent basis, Debye-Ang):
   XX=            -51.3164   YY=            -36.1222   ZZ=            -84.1331
   XY=             10.0510   XZ=              0.0000   YZ=             -0.0000

 Normal termination of Gaussian 16 at Wed Jul 27 14:07:44 2022.
