 Gaussian 16, Revision C.01,
 Gaussian 16:  ES64L-G16RevC.01  3-Jul-2019

 ---------------------------------------------------------------
 #n M062X/6-311++G(d,p) TD(NStates=1) EmpiricalDispersion=GD3 SP
 ---------------------------------------------------------------

 -----
 SP_18
 -----
 Symbolic Z-matrix:
 Charge =  1 Multiplicity = 1

                         Standard orientation:
 ---------------------------------------------------------------------
 Center     Atomic      Atomic             Coordinates (Angstroms)
 Number     Number       Type             X           Y           Z
 ---------------------------------------------------------------------
      1          6           0       -2.408643   -1.515298    0.000000
      2          6           0       -2.377815   -2.887461    0.000000
      3          6           0       -1.161741   -3.562006    0.000000
      4          6           0        0.026599   -2.856257    0.000000
      5          6           0        2.413994    1.452956    0.000000
      6          6           0        2.415541    2.879027    0.000000
      7          6           0        1.225076    3.579686    0.000000
      8          6           0        0.028501    2.833686    0.000000
      9          6           0       -1.259461    0.725515    0.000000
     10          6           0        1.252374   -0.688658    0.000000
     11          6           0       -1.196752   -0.794198    0.000000
     12          6           0       -0.005156   -1.440912    0.000000
     13          6           0        0.000000    1.428544    0.000000
     14          6           0        1.258702    0.687949    0.000000
     15          1           0       -3.319118   -0.927807    0.000000
     16          1           0       -3.322307   -3.410098    0.000000
     17          1           0       -1.095409   -4.640238    0.000000
     18          1           0        0.941834   -3.433816    0.000000
     19          1           0        2.169771   -1.263080    0.000000
     20          1           0        3.336660    0.881308    0.000000
     21          1           0        3.340466    3.441206    0.000000
     22          1           0        1.245138    4.660741    0.000000
     23          1           0       -0.889592    3.414933    0.000000
     24          1           0       -1.837378    1.110704    0.859585
     25          1           0       -1.837378    1.110704   -0.859585
 ---------------------------------------------------------------------

 SCF Done:  E(RM062X) =  -539.747093822     A.U. after   15 cycles

 Excitation energies and oscillator strengths:

 Excited State   1:      Singlet-A'     2.7963 eV  443.39 nm  f=0.0326  <S**2>=0.000
      47 -> 48         0.69983
 This state for optimization and/or second-order correction.
 Total Energy, E(TD-HF/TD-DFT) =  -539.644333349
 Copying the excited state density for this state as the 1-particle RhoCI density.

 The electronic state is 1-A'.
 Alpha  occ. eigenvalues --  -10.77585 -10.73889 -10.72648 -10.72538 -10.72268
 Alpha  occ. eigenvalues --  -10.72139 -10.71817 -10.71000 -10.70542 -10.70473
 Alpha  occ. eigenvalues --  -10.70282 -10.70187 -10.69463 -10.68990  -1.16505
 Alpha  occ. eigenvalues --   -1.12520  -1.07025  -1.05938  -1.01247  -1.00247
 Alpha  occ. eigenvalues --   -0.95790  -0.91178  -0.86364  -0.85830  -0.83719
 Alpha  occ. eigenvalues --   -0.78429  -0.76035  -0.74379  -0.70130  -0.69026
 Alpha  occ. eigenvalues --   -0.68531  -0.68156  -0.67875  -0.64923  -0.64011
 Alpha  occ. eigenvalues --   -0.62993  -0.61737  -0.60087  -0.59698  -0.59355
 Alpha  occ. eigenvalues --   -0.56759  -0.55131  -0.54437  -0.52516  -0.46577
 Alpha  occ. eigenvalues --   -0.46136  -0.44461
 Alpha virt. eigenvalues --   -0.26128  -0.14814  -0.13923  -0.12692  -0.11188
 Alpha virt. eigenvalues --   -0.10102  -0.09246  -0.08002  -0.07919  -0.07469
 Alpha virt. eigenvalues --   -0.07209  -0.07126  -0.05645  -0.05589  -0.05360

 Mulliken charges:
               1
     1  C    0.049488
     2  C   -0.443141
     3  C   -0.440480
     4  C   -0.179258
     5  C    0.116392
     6  C   -0.417750
     7  C   -0.351544
     8  C    0.134786
     9  C   -0.397733
    10  C    0.039406
    11  C   -0.606623
    12  C    0.942983
    13  C   -0.650235
    14  C    0.581107
    15  H    0.234227
    16  H    0.254429
    17  H    0.241663
    18  H    0.225929
    19  H    0.191319
    20  H    0.217674
    21  H    0.255581
    22  H    0.258086
    23  H    0.243564
    24  H    0.250065
    25  H    0.250065
 Sum of Mulliken charges =   1.00000

 Dipole moment (field-independent basis, Debye):
    X=              0.6006    Y=              0.6841    Z=             -0.0000  Tot=              0.9104
 Quadrupole moment (field-independent basis, Debye-Ang):
   XX=            -51.2477   YY=            -36.1800   ZZ=            -84.1234
   XY=             10.1499   XZ=              0.0000   YZ=             -0.0000

 Normal termination of Gaussian 16 at Wed Jul 27 14:46:09 2022.
