 Gaussian 16, Revision C.01,
 Gaussian 16:  ES64L-G16RevC.01  3-Jul-2019

 ---------------------------------------------------------------
 #n M062X/6-311++G(d,p) TD(NStates=1) EmpiricalDispersion=GD3 SP
 ---------------------------------------------------------------

 ----
 SP_2
 ----
 Symbolic Z-matrix:
 Charge =  1 Multiplicity = 1

                         Standard orientation:
 ---------------------------------------------------------------------
 Center     Atomic      Atomic             Coordinates (Angstroms)
 Number     Number       Type             X           Y           Z
 ---------------------------------------------------------------------
      1          6           0       -2.365769   -1.543525    0.000000
      2          6           0       -2.316173   -2.934259    0.000000
      3          6           0       -1.082193   -3.585814    0.000000
      4          6           0        0.079612   -2.862465    0.000000
      5          6           0        2.380664    1.493465    0.000000
      6          6           0        2.351914    2.932755    0.000000
      7          6           0        1.151488    3.606411    0.000000
      8          6           0       -0.018592    2.854666    0.000000
      9          6           0       -1.277190    0.693675    0.000000
     10          6           0        1.245851   -0.701044    0.000000
     11          6           0       -1.206217   -0.800730    0.000000
     12          6           0        0.053978   -1.446169    0.000000
     13          6           0        0.000000    1.416608    0.000000
     14          6           0        1.223286    0.735133    0.000000
     15          1           0       -3.321663   -1.034417    0.000000
     16          1           0       -3.235538   -3.501497    0.000000
     17          1           0       -1.039919   -4.665420    0.000000
     18          1           0        1.035548   -3.370019    0.000000
     19          1           0        2.198991   -1.211194    0.000000
     20          1           0        3.341089    0.993476    0.000000
     21          1           0        3.288388    3.473813    0.000000
     22          1           0        1.120416    4.685303    0.000000
     23          1           0       -0.979155    3.355873    0.000000
     24          1           0       -1.866057    1.060919    0.859585
     25          1           0       -1.866057    1.060919   -0.859585
 ---------------------------------------------------------------------

 SCF Done:  E(RM062X) =  -539.755361356     A.U. after   15 cycles

 Excitation energies and oscillator strengths:

 Excited State   1:      Singlet-A'     2.7027 eV  458.74 nm  f=0.0219  <S**2>=0.000
      47 -> 48         0.70346
 This state for optimization and/or second-order correction.
 Total Energy, E(TD-HF/TD-DFT) =  -539.656039254
 Copying the excited state density for this state as the 1-particle RhoCI density.

 The electronic state is 1-A'.
 Alpha  occ. eigenvalues --  -10.77621 -10.73584 -10.72894 -10.72743 -10.72083
 Alpha  occ. eigenvalues --  -10.71774 -10.71619 -10.71061 -10.70992 -10.70279
 Alpha  occ. eigenvalues --  -10.70100 -10.69843 -10.69757 -10.69481  -1.16511
 Alpha  occ. eigenvalues --   -1.12483  -1.06923  -1.05806  -1.01316  -1.00373
 Alpha  occ. eigenvalues --   -0.95626  -0.91033  -0.86444  -0.85889  -0.83809
 Alpha  occ. eigenvalues --   -0.78344  -0.76115  -0.74371  -0.69670  -0.69281
 Alpha  occ. eigenvalues --   -0.68413  -0.68126  -0.68091  -0.65061  -0.64310
 Alpha  occ. eigenvalues --   -0.62819  -0.61708  -0.60344  -0.59358  -0.59140
 Alpha  occ. eigenvalues --   -0.56906  -0.55353  -0.54565  -0.52431  -0.47115
 Alpha  occ. eigenvalues --   -0.46117  -0.43984
 Alpha virt. eigenvalues --   -0.26098  -0.14703  -0.14059  -0.12761  -0.11185
 Alpha virt. eigenvalues --   -0.10090  -0.09246  -0.07969  -0.07938  -0.07482
 Alpha virt. eigenvalues --   -0.07207  -0.07139  -0.05646  -0.05577  -0.05342

 Mulliken charges:
               1
     1  C    0.072178
     2  C   -0.409540
     3  C   -0.435709
     4  C    0.018617
     5  C    0.009662
     6  C   -0.443292
     7  C   -0.404496
     8  C    0.115254
     9  C   -0.335898
    10  C    0.090026
    11  C   -0.644808
    12  C    0.719315
    13  C   -0.622436
    14  C    0.651673
    15  H    0.238254
    16  H    0.260049
    17  H    0.250399
    18  H    0.224949
    19  H    0.189894
    20  H    0.219004
    21  H    0.247179
    22  H    0.252666
    23  H    0.236224
    24  H    0.250418
    25  H    0.250418
 Sum of Mulliken charges =   1.00000

 Dipole moment (field-independent basis, Debye):
    X=             -0.2056    Y=             -0.7581    Z=              0.0000  Tot=              0.7855
 Quadrupole moment (field-independent basis, Debye-Ang):
   XX=            -51.0081   YY=            -36.3214   ZZ=            -84.1341
   XY=             10.2573   XZ=             -0.0000   YZ=              0.0000

 Normal termination of Gaussian 16 at Wed Jul 27 12:54:34 2022.
