 Gaussian 16, Revision C.01,
 Gaussian 16:  ES64L-G16RevC.01  3-Jul-2019

 ---------------------------------------------------------------
 #n M062X/6-311++G(d,p) TD(NStates=1) EmpiricalDispersion=GD3 SP
 ---------------------------------------------------------------

 -----
 SP_16
 -----
 Symbolic Z-matrix:
 Charge =  1 Multiplicity = 1

                         Standard orientation:
 ---------------------------------------------------------------------
 Center     Atomic      Atomic             Coordinates (Angstroms)
 Number     Number       Type             X           Y           Z
 ---------------------------------------------------------------------
      1          6           0       -2.396456   -1.516153    0.000000
      2          6           0       -2.356574   -2.891701    0.000000
      3          6           0       -1.135601   -3.567288    0.000000
      4          6           0        0.037062   -2.868370    0.000000
      5          6           0        2.398304    1.455276    0.000000
      6          6           0        2.397128    2.898382    0.000000
      7          6           0        1.210048    3.595544    0.000000
      8          6           0        0.021361    2.843604    0.000000
      9          6           0       -1.261102    0.722745    0.000000
     10          6           0        1.245344   -0.701288    0.000000
     11          6           0       -1.203850   -0.798679    0.000000
     12          6           0        0.003014   -1.446178    0.000000
     13          6           0        0.000000    1.419957    0.000000
     14          6           0        1.250233    0.692240    0.000000
     15          1           0       -3.316634   -0.945138    0.000000
     16          1           0       -3.297473   -3.421458    0.000000
     17          1           0       -1.078731   -4.645610    0.000000
     18          1           0        0.961374   -3.430484    0.000000
     19          1           0        2.169402   -1.264183    0.000000
     20          1           0        3.329673    0.899300    0.000000
     21          1           0        3.326780    3.452377    0.000000
     22          1           0        1.222155    4.676186    0.000000
     23          1           0       -0.906058    3.408150    0.000000
     24          1           0       -1.831973    1.121158    0.859585
     25          1           0       -1.831973    1.121158   -0.859585
 ---------------------------------------------------------------------

 SCF Done:  E(RM062X) =  -539.747221247     A.U. after   16 cycles

 Excitation energies and oscillator strengths:

 Excited State   1:      Singlet-A'     2.7311 eV  453.97 nm  f=0.0291  <S**2>=0.000
      47 -> 48         0.70217
 This state for optimization and/or second-order correction.
 Total Energy, E(TD-HF/TD-DFT) =  -539.646855901
 Copying the excited state density for this state as the 1-particle RhoCI density.

 The electronic state is 1-A'.
 Alpha  occ. eigenvalues --  -10.77659 -10.73608 -10.72896 -10.72442 -10.72409
 Alpha  occ. eigenvalues --  -10.71918 -10.71227 -10.71025 -10.70820 -10.70758
 Alpha  occ. eigenvalues --  -10.70311 -10.70069 -10.69627 -10.69163  -1.16519
 Alpha  occ. eigenvalues --   -1.12548  -1.06944  -1.05874  -1.01329  -1.00439
 Alpha  occ. eigenvalues --   -0.95650  -0.91093  -0.86429  -0.85849  -0.83760
 Alpha  occ. eigenvalues --   -0.78380  -0.76075  -0.74350  -0.69863  -0.69058
 Alpha  occ. eigenvalues --   -0.68564  -0.68135  -0.68075  -0.64827  -0.64318
 Alpha  occ. eigenvalues --   -0.62955  -0.61649  -0.60253  -0.59520  -0.59123
 Alpha  occ. eigenvalues --   -0.56909  -0.55044  -0.54690  -0.52464  -0.46803
 Alpha  occ. eigenvalues --   -0.46160  -0.44229
 Alpha virt. eigenvalues --   -0.26102  -0.14851  -0.13943  -0.12709  -0.11182
 Alpha virt. eigenvalues --   -0.10097  -0.09232  -0.07999  -0.07936  -0.07473
 Alpha virt. eigenvalues --   -0.07207  -0.07135  -0.05649  -0.05587  -0.05348

 Mulliken charges:
               1
     1  C    0.051391
     2  C   -0.444720
     3  C   -0.437584
     4  C   -0.136381
     5  C    0.103023
     6  C   -0.423217
     7  C   -0.362079
     8  C    0.143247
     9  C   -0.372192
    10  C    0.057666
    11  C   -0.634571
    12  C    0.895638
    13  C   -0.637569
    14  C    0.576690
    15  H    0.234545
    16  H    0.256926
    17  H    0.243587
    18  H    0.226461
    19  H    0.190861
    20  H    0.216291
    21  H    0.253228
    22  H    0.255659
    23  H    0.241362
    24  H    0.250868
    25  H    0.250868
 Sum of Mulliken charges =   1.00000

 Dipole moment (field-independent basis, Debye):
    X=              0.3033    Y=              0.1594    Z=              0.0000  Tot=              0.3427
 Quadrupole moment (field-independent basis, Debye-Ang):
   XX=            -51.3691   YY=            -36.1053   ZZ=            -84.1298
   XY=             10.0332   XZ=             -0.0000   YZ=             -0.0000

 Normal termination of Gaussian 16 at Wed Jul 27 14:35:38 2022.
