 Gaussian 16, Revision C.01,
 Gaussian 16:  ES64L-G16RevC.01  3-Jul-2019

 ---------------------------------------------------------------
 #n M062X/6-311++G(d,p) TD(NStates=1) EmpiricalDispersion=GD3 SP
 ---------------------------------------------------------------

 ----
 SP_8
 ----
 Symbolic Z-matrix:
 Charge =  1 Multiplicity = 1

                         Standard orientation:
 ---------------------------------------------------------------------
 Center     Atomic      Atomic             Coordinates (Angstroms)
 Number     Number       Type             X           Y           Z
 ---------------------------------------------------------------------
      1          6           0       -2.381599   -1.532849    0.000000
      2          6           0       -2.338856   -2.916692    0.000000
      3          6           0       -1.111437   -3.577149    0.000000
      4          6           0        0.059786   -2.860789    0.000000
      5          6           0        2.392744    1.478138    0.000000
      6          6           0        2.375512    2.913277    0.000000
      7          6           0        1.178998    3.597113    0.000000
      8          6           0       -0.000798    2.847231    0.000000
      9          6           0       -1.270576    0.705767    0.000000
     10          6           0        1.247868   -0.696914    0.000000
     11          6           0       -1.202953   -0.798335    0.000000
     12          6           0        0.031765   -1.444621    0.000000
     13          6           0        0.000000    1.420682    0.000000
     14          6           0        1.236559    0.717445    0.000000
     15          1           0       -3.320943   -0.994454    0.000000
     16          1           0       -3.267801   -3.467334    0.000000
     17          1           0       -1.060497   -4.656084    0.000000
     18          1           0        1.000902   -3.394468    0.000000
     19          1           0        2.187938   -1.231170    0.000000
     20          1           0        3.339460    0.951418    0.000000
     21          1           0        3.307696    3.461882    0.000000
     22          1           0        1.167056    4.676992    0.000000
     23          1           0       -0.945924    3.378334    0.000000
     24          1           0       -1.854984    1.080534    0.859585
     25          1           0       -1.854984    1.080534   -0.859585
 ---------------------------------------------------------------------

 SCF Done:  E(RM062X) =  -539.755161942     A.U. after   15 cycles

 Excitation energies and oscillator strengths:

 Excited State   1:      Singlet-A'     2.7486 eV  451.08 nm  f=0.0262  <S**2>=0.000
      47 -> 48         0.70321
 This state for optimization and/or second-order correction.
 Total Energy, E(TD-HF/TD-DFT) =  -539.654152681
 Copying the excited state density for this state as the 1-particle RhoCI density.

 The electronic state is 1-A'.
 Alpha  occ. eigenvalues --  -10.77667 -10.73280 -10.73222 -10.72552 -10.72314
 Alpha  occ. eigenvalues --  -10.71497 -10.71212 -10.71183 -10.71001 -10.70825
 Alpha  occ. eigenvalues --  -10.70077 -10.69865 -10.69772 -10.69467  -1.16485
 Alpha  occ. eigenvalues --   -1.12501  -1.06923  -1.05778  -1.01337  -1.00347
 Alpha  occ. eigenvalues --   -0.95674  -0.91045  -0.86441  -0.85886  -0.83807
 Alpha  occ. eigenvalues --   -0.78370  -0.76072  -0.74379  -0.69605  -0.69216
 Alpha  occ. eigenvalues --   -0.68520  -0.68177  -0.68105  -0.64820  -0.64377
 Alpha  occ. eigenvalues --   -0.62955  -0.61743  -0.60219  -0.59492  -0.59061
 Alpha  occ. eigenvalues --   -0.56943  -0.55190  -0.54765  -0.52433  -0.46849
 Alpha  occ. eigenvalues --   -0.46117  -0.44231
 Alpha virt. eigenvalues --   -0.26089  -0.14749  -0.14036  -0.12755  -0.11180
 Alpha virt. eigenvalues --   -0.10089  -0.09232  -0.07984  -0.07955  -0.07477
 Alpha virt. eigenvalues --   -0.07204  -0.07142  -0.05646  -0.05582  -0.05337

 Mulliken charges:
               1
     1  C    0.067232
     2  C   -0.427245
     3  C   -0.439938
     4  C   -0.042083
     5  C    0.057624
     6  C   -0.434564
     7  C   -0.386140
     8  C    0.123229
     9  C   -0.341248
    10  C    0.084940
    11  C   -0.645298
    12  C    0.775545
    13  C   -0.629710
    14  C    0.618242
    15  H    0.236054
    16  H    0.258014
    17  H    0.247102
    18  H    0.225208
    19  H    0.190314
    20  H    0.218256
    21  H    0.250253
    22  H    0.254636
    23  H    0.238526
    24  H    0.250525
    25  H    0.250525
 Sum of Mulliken charges =   1.00000

 Dipole moment (field-independent basis, Debye):
    X=              0.0848    Y=             -0.2304    Z=              0.0000  Tot=              0.2455
 Quadrupole moment (field-independent basis, Debye-Ang):
   XX=            -51.1032   YY=            -36.3014   ZZ=            -84.1376
   XY=             10.1807   XZ=             -0.0000   YZ=             -0.0000

 Normal termination of Gaussian 16 at Wed Jul 27 13:36:31 2022.
