 Gaussian 16, Revision C.01,
 Gaussian 16:  ES64L-G16RevC.01  3-Jul-2019

 ---------------------------------------------------------------
 #n M062X/6-311++G(d,p) TD(NStates=1) EmpiricalDispersion=GD3 SP
 ---------------------------------------------------------------

 -----
 SP_10
 -----
 Symbolic Z-matrix:
 Charge =  1 Multiplicity = 1

                         Standard orientation:
 ---------------------------------------------------------------------
 Center     Atomic      Atomic             Coordinates (Angstroms)
 Number     Number       Type             X           Y           Z
 ---------------------------------------------------------------------
      1          6           0       -2.380723   -1.526928    0.000000
      2          6           0       -2.334135   -2.909362    0.000000
      3          6           0       -1.106503   -3.576132    0.000000
      4          6           0        0.056870   -2.870204    0.000000
      5          6           0        2.386403    1.470607    0.000000
      6          6           0        2.373713    2.917989    0.000000
      7          6           0        1.182625    3.605056    0.000000
      8          6           0        0.003710    2.851176    0.000000
      9          6           0       -1.267849    0.710759    0.000000
     10          6           0        1.243236   -0.705403    0.000000
     11          6           0       -1.207074   -0.800981    0.000000
     12          6           0        0.025196   -1.448034    0.000000
     13          6           0       -0.000000    1.415797    0.000000
     14          6           0        1.237231    0.710070    0.000000
     15          1           0       -3.317864   -0.984938    0.000000
     16          1           0       -3.265699   -3.455830    0.000000
     17          1           0       -1.058335   -4.654947    0.000000
     18          1           0        0.996359   -3.406424    0.000000
     19          1           0        2.180706   -1.244403    0.000000
     20          1           0        3.331848    0.941149    0.000000
     21          1           0        3.307507    3.464332    0.000000
     22          1           0        1.175610    4.684980    0.000000
     23          1           0       -0.939569    3.386069    0.000000
     24          1           0       -1.843373    1.101775    0.859585
     25          1           0       -1.843373    1.101775   -0.859585
 ---------------------------------------------------------------------

 SCF Done:  E(RM062X) =  -539.751120452     A.U. after   16 cycles

 Excitation energies and oscillator strengths:

 Excited State   1:      Singlet-A'     2.6896 eV  460.97 nm  f=0.0245  <S**2>=0.000
      47 -> 48         0.70313
 This state for optimization and/or second-order correction.
 Total Energy, E(TD-HF/TD-DFT) =  -539.652278961
 Copying the excited state density for this state as the 1-particle RhoCI density.

 The electronic state is 1-A'.
 Alpha  occ. eigenvalues --  -10.77665 -10.73279 -10.73241 -10.72626 -10.72234
 Alpha  occ. eigenvalues --  -10.71466 -10.71342 -10.71210 -10.71019 -10.70673
 Alpha  occ. eigenvalues --  -10.70078 -10.69863 -10.69772 -10.69447  -1.16525
 Alpha  occ. eigenvalues --   -1.12527  -1.06901  -1.05817  -1.01362  -1.00483
 Alpha  occ. eigenvalues --   -0.95576  -0.91027  -0.86465  -0.85875  -0.83801
 Alpha  occ. eigenvalues --   -0.78339  -0.76117  -0.74346  -0.69605  -0.69237
 Alpha  occ. eigenvalues --   -0.68515  -0.68167  -0.68103  -0.64924  -0.64438
 Alpha  occ. eigenvalues --   -0.62852  -0.61641  -0.60360  -0.59372  -0.59031
 Alpha  occ. eigenvalues --   -0.56984  -0.55199  -0.54683  -0.52426  -0.47077
 Alpha  occ. eigenvalues --   -0.46141  -0.43996
 Alpha virt. eigenvalues --   -0.26090  -0.14798  -0.14002  -0.12740  -0.11182
 Alpha virt. eigenvalues --   -0.10091  -0.09235  -0.07982  -0.07941  -0.07480
 Alpha virt. eigenvalues --   -0.07206  -0.07140  -0.05649  -0.05581  -0.05341

 Mulliken charges:
               1
     1  C    0.059513
     2  C   -0.432033
     3  C   -0.437818
     4  C   -0.056054
     5  C    0.064769
     6  C   -0.433067
     7  C   -0.381674
     8  C    0.134381
     9  C   -0.344657
    10  C    0.079941
    11  C   -0.647763
    12  C    0.802254
    13  C   -0.626178
    14  C    0.599102
    15  H    0.235898
    16  H    0.258974
    17  H    0.246848
    18  H    0.226189
    19  H    0.190154
    20  H    0.216860
    21  H    0.250173
    22  H    0.253731
    23  H    0.238539
    24  H    0.250959
    25  H    0.250959
 Sum of Mulliken charges =   1.00000

 Dipole moment (field-independent basis, Debye):
    X=              0.0067    Y=             -0.3643    Z=             -0.0000  Tot=              0.3644
 Quadrupole moment (field-independent basis, Debye-Ang):
   XX=            -51.2631   YY=            -36.1517   ZZ=            -84.1340
   XY=             10.0830   XZ=              0.0000   YZ=             -0.0000

 Normal termination of Gaussian 16 at Wed Jul 27 13:53:34 2022.
