 Gaussian 16, Revision C.01,
 Gaussian 16:  ES64L-G16RevC.01  3-Jul-2019

 ---------------------------------------------------------------
 #n M062X/6-311++G(d,p) TD(NStates=1) EmpiricalDispersion=GD3 SP
 ---------------------------------------------------------------

 -----
 SP_16
 -----
 Symbolic Z-matrix:
 Charge =  1 Multiplicity = 1

                         Standard orientation:
 ---------------------------------------------------------------------
 Center     Atomic      Atomic             Coordinates (Angstroms)
 Number     Number       Type             X           Y           Z
 ---------------------------------------------------------------------
      1          6           0        0.065876    2.851588    0.000000
      2          6           0       -1.091603    3.590697    0.000000
      3          6           0       -2.319036    2.947246    0.000000
      4          6           0       -2.383829    1.548669    0.000000
      5          6           0       -0.123510   -2.828499    0.000000
      6          6           0        1.051542   -3.604283    0.000000
      7          6           0        2.295108   -2.992223    0.000000
      8          6           0        2.341778   -1.583904    0.000000
      9          6           0        1.298189    0.653554    0.000000
     10          6           0       -1.259762   -0.675427    0.000000
     11          6           0        0.000000    1.428737    0.000000
     12          6           0       -1.196912    0.793171    0.000000
     13          6           0        1.196444   -0.794315    0.000000
     14          6           0       -0.116865   -1.434418    0.000000
     15          1           0        1.058503    3.286410    0.000000
     16          1           0       -1.008995    4.666686    0.000000
     17          1           0       -3.257050    3.484048    0.000000
     18          1           0       -3.371364    1.105457    0.000000
     19          1           0       -2.243964   -1.125464    0.000000
     20          1           0       -1.109874   -3.280989    0.000000
     21          1           0        1.013593   -4.685829    0.000000
     22          1           0        3.187165   -3.603288    0.000000
     23          1           0        3.333061   -1.139466    0.000000
     24          1           0        1.927203    0.944438    0.859585
     25          1           0        1.927203    0.944438   -0.859585
 ---------------------------------------------------------------------

 SCF Done:  E(RM062X) =  -539.749709166     A.U. after   15 cycles

 Excitation energies and oscillator strengths:

 Excited State   1:      Singlet-A'     2.8004 eV  442.74 nm  f=0.0286  <S**2>=0.000
      47 -> 48         0.70126
 This state for optimization and/or second-order correction.
 Total Energy, E(TD-HF/TD-DFT) =  -539.646796973
 Copying the excited state density for this state as the 1-particle RhoCI density.

 The electronic state is 1-A'.
 Alpha  occ. eigenvalues --  -10.77526 -10.73983 -10.72760 -10.72393 -10.72349
 Alpha  occ. eigenvalues --  -10.72140 -10.71978 -10.70975 -10.70502 -10.70466
 Alpha  occ. eigenvalues --  -10.70317 -10.69908 -10.69434 -10.68975  -1.16502
 Alpha  occ. eigenvalues --   -1.12481  -1.07055  -1.05948  -1.01208  -1.00141
 Alpha  occ. eigenvalues --   -0.95833  -0.91193  -0.86343  -0.85837  -0.83715
 Alpha  occ. eigenvalues --   -0.78432  -0.76042  -0.74398  -0.70214  -0.69074
 Alpha  occ. eigenvalues --   -0.68441  -0.68147  -0.67802  -0.65039  -0.63954
 Alpha  occ. eigenvalues --   -0.62885  -0.61797  -0.60127  -0.59639  -0.59471
 Alpha  occ. eigenvalues --   -0.56689  -0.55267  -0.54281  -0.52529  -0.46695
 Alpha  occ. eigenvalues --   -0.46105  -0.44379
 Alpha virt. eigenvalues --   -0.26141  -0.14738  -0.13961  -0.12699  -0.11194
 Alpha virt. eigenvalues --   -0.10103  -0.09261  -0.07991  -0.07909  -0.07472
 Alpha virt. eigenvalues --   -0.07212  -0.07121  -0.05643  -0.05584  -0.05364

 Mulliken charges:
               1
     1  C    0.059665
     2  C   -0.438199
     3  C   -0.446769
     4  C   -0.164217
     5  C    0.110011
     6  C   -0.418670
     7  C   -0.354918
     8  C    0.119092
     9  C   -0.395130
    10  C    0.045107
    11  C   -0.600938
    12  C    0.910513
    13  C   -0.652500
    14  C    0.603917
    15  H    0.234247
    16  H    0.252826
    17  H    0.241559
    18  H    0.224861
    19  H    0.191024
    20  H    0.219651
    21  H    0.256176
    22  H    0.259720
    23  H    0.243914
    24  H    0.249529
    25  H    0.249529
 Sum of Mulliken charges =   1.00000

 Dipole moment (field-independent basis, Debye):
    X=              0.3821    Y=             -1.1469    Z=             -0.0000  Tot=              1.2089
 Quadrupole moment (field-independent basis, Debye-Ang):
   XX=            -50.3272   YY=            -37.0110   ZZ=            -84.1208
   XY=            -10.7761   XZ=             -0.0000   YZ=              0.0000

 Normal termination of Gaussian 16 at Wed Jul 27 14:26:47 2022.
