 Gaussian 16, Revision C.01,
 Gaussian 16:  ES64L-G16RevC.01  3-Jul-2019

 ---------------------------------------------------------------
 #n M062X/6-311++G(d,p) TD(NStates=1) EmpiricalDispersion=GD3 SP
 ---------------------------------------------------------------

 -----
 SP_16
 -----
 Symbolic Z-matrix:
 Charge =  1 Multiplicity = 1

                         Standard orientation:
 ---------------------------------------------------------------------
 Center     Atomic      Atomic             Coordinates (Angstroms)
 Number     Number       Type             X           Y           Z
 ---------------------------------------------------------------------
      1          6           0       -2.388598   -1.513111    0.000000
      2          6           0       -2.340937   -2.889833    0.000000
      3          6           0       -1.116896   -3.569805    0.000000
      4          6           0        0.041641   -2.881258    0.000000
      5          6           0        2.385052    1.452153    0.000000
      6          6           0        2.384924    2.912809    0.000000
      7          6           0        1.203138    3.609798    0.000000
      8          6           0        0.019717    2.851903    0.000000
      9          6           0       -1.260440    0.724051    0.000000
     10          6           0        1.238390   -0.713964    0.000000
     11          6           0       -1.210576   -0.802993    0.000000
     12          6           0        0.004002   -1.451337    0.000000
     13          6           0        0.000000    1.411890    0.000000
     14          6           0        1.245508    0.690372    0.000000
     15          1           0       -3.313202   -0.949881    0.000000
     16          1           0       -3.281205   -3.421349    0.000000
     17          1           0       -1.067351   -4.648151    0.000000
     18          1           0        0.970361   -3.435577    0.000000
     19          1           0        2.164830   -1.272743    0.000000
     20          1           0        3.320814    0.903987    0.000000
     21          1           0        3.318408    3.460571    0.000000
     22          1           0        1.213417    4.690174    0.000000
     23          1           0       -0.912114    3.408646    0.000000
     24          1           0       -1.821754    1.140139    0.859585
     25          1           0       -1.821754    1.140139   -0.859585
 ---------------------------------------------------------------------

 SCF Done:  E(RM062X) =  -539.742174013     A.U. after   16 cycles

 Excitation energies and oscillator strengths:

 Excited State   1:      Singlet-A'     2.6323 eV  471.01 nm  f=0.0254  <S**2>=0.000
      47 -> 48         0.70301
 This state for optimization and/or second-order correction.
 Total Energy, E(TD-HF/TD-DFT) =  -539.645437949
 Copying the excited state density for this state as the 1-particle RhoCI density.

 The electronic state is 1-A'.
 Alpha  occ. eigenvalues --  -10.77674 -10.73412 -10.73141 -10.72602 -10.72256
 Alpha  occ. eigenvalues --  -10.71678 -10.71207 -10.71056 -10.70979 -10.70789
 Alpha  occ. eigenvalues --  -10.70212 -10.69938 -10.69725 -10.69254  -1.16583
 Alpha  occ. eigenvalues --   -1.12588  -1.06883  -1.05900  -1.01405  -1.00673
 Alpha  occ. eigenvalues --   -0.95469  -0.91029  -0.86490  -0.85843  -0.83770
 Alpha  occ. eigenvalues --   -0.78313  -0.76158  -0.74297  -0.69725  -0.69158
 Alpha  occ. eigenvalues --   -0.68541  -0.68138  -0.68120  -0.64951  -0.64519
 Alpha  occ. eigenvalues --   -0.62771  -0.61494  -0.60486  -0.59304  -0.58993
 Alpha  occ. eigenvalues --   -0.57026  -0.55083  -0.54621  -0.52431  -0.47243
 Alpha  occ. eigenvalues --   -0.46172  -0.43810
 Alpha virt. eigenvalues --   -0.26094  -0.14904  -0.13930  -0.12696  -0.11183
 Alpha virt. eigenvalues --   -0.10097  -0.09235  -0.07992  -0.07921  -0.07479
 Alpha virt. eigenvalues --   -0.07208  -0.07135  -0.05654  -0.05584  -0.05349

 Mulliken charges:
               1
     1  C    0.045871
     2  C   -0.446221
     3  C   -0.433402
     4  C   -0.122093
     5  C    0.096677
     6  C   -0.424966
     7  C   -0.365413
     8  C    0.155149
     9  C   -0.364516
    10  C    0.059499
    11  C   -0.643439
    12  C    0.890431
    13  C   -0.628388
    14  C    0.561062
    15  H    0.234829
    16  H    0.259031
    17  H    0.244547
    18  H    0.227417
    19  H    0.190379
    20  H    0.214604
    21  H    0.251732
    22  H    0.253680
    23  H    0.240068
    24  H    0.251730
    25  H    0.251730
 Sum of Mulliken charges =   1.00000

 Dipole moment (field-independent basis, Debye):
    X=              0.0745    Y=             -0.2358    Z=              0.0000  Tot=              0.2473
 Quadrupole moment (field-independent basis, Debye-Ang):
   XX=            -51.5365   YY=            -35.9492   ZZ=            -84.1270
   XY=              9.9212   XZ=             -0.0000   YZ=              0.0000

 Normal termination of Gaussian 16 at Wed Jul 27 14:39:58 2022.
