 Gaussian 16, Revision C.01,
 Gaussian 16:  ES64L-G16RevC.01  3-Jul-2019

 ---------------------------------------------------------------
 #n M062X/6-311++G(d,p) TD(NStates=1) EmpiricalDispersion=GD3 SP
 ---------------------------------------------------------------

 -----
 SP_14
 -----
 Symbolic Z-matrix:
 Charge =  1 Multiplicity = 1

                         Standard orientation:
 ---------------------------------------------------------------------
 Center     Atomic      Atomic             Coordinates (Angstroms)
 Number     Number       Type             X           Y           Z
 ---------------------------------------------------------------------
      1          6           0        0.060157    2.850137    0.000000
      2          6           0       -1.099885    3.589353    0.000000
      3          6           0       -2.325523    2.942474    0.000000
      4          6           0       -2.386497    1.543230    0.000000
      5          6           0       -0.117556   -2.829473    0.000000
      6          6           0        1.059199   -3.601759    0.000000
      7          6           0        2.301039   -2.986236    0.000000
      8          6           0        2.346232   -1.580121    0.000000
      9          6           0        1.296044    0.657772    0.000000
     10          6           0       -1.259693   -0.675449    0.000000
     11          6           0        0.000000    1.429145    0.000000
     12          6           0       -1.200998    0.787190    0.000000
     13          6           0        1.196034   -0.794005    0.000000
     14          6           0       -0.109624   -1.434696    0.000000
     15          1           0        1.048417    3.294177    0.000000
     16          1           0       -1.023421    4.665829    0.000000
     17          1           0       -3.262449    3.481074    0.000000
     18          1           0       -3.370195    1.091877    0.000000
     19          1           0       -2.240050   -1.133172    0.000000
     20          1           0       -1.099708   -3.289918    0.000000
     21          1           0        1.019168   -4.682998    0.000000
     22          1           0        3.196372   -3.592077    0.000000
     23          1           0        3.332770   -1.126650    0.000000
     24          1           0        1.922760    0.953246    0.859585
     25          1           0        1.922760    0.953246   -0.859585
 ---------------------------------------------------------------------

 SCF Done:  E(RM062X) =  -539.752179293     A.U. after   15 cycles

 Excitation energies and oscillator strengths:

 Excited State   1:      Singlet-A'     2.8054 eV  441.94 nm  f=0.0287  <S**2>=0.000
      47 -> 48         0.70194
 This state for optimization and/or second-order correction.
 Total Energy, E(TD-HF/TD-DFT) =  -539.649081690
 Copying the excited state density for this state as the 1-particle RhoCI density.

 The electronic state is 1-A'.
 Alpha  occ. eigenvalues --  -10.77559 -10.73897 -10.72728 -10.72503 -10.72224
 Alpha  occ. eigenvalues --  -10.72042 -10.71998 -10.70976 -10.70573 -10.70438
 Alpha  occ. eigenvalues --  -10.70230 -10.70041 -10.69500 -10.69053  -1.16488
 Alpha  occ. eigenvalues --   -1.12478  -1.07029  -1.05900  -1.01230  -1.00152
 Alpha  occ. eigenvalues --   -0.95821  -0.91162  -0.86360  -0.85852  -0.83738
 Alpha  occ. eigenvalues --   -0.78425  -0.76039  -0.74402  -0.70111  -0.69076
 Alpha  occ. eigenvalues --   -0.68452  -0.68136  -0.67886  -0.64992  -0.64007
 Alpha  occ. eigenvalues --   -0.62927  -0.61812  -0.60101  -0.59645  -0.59395
 Alpha  occ. eigenvalues --   -0.56727  -0.55273  -0.54391  -0.52508  -0.46680
 Alpha  occ. eigenvalues --   -0.46093  -0.44406
 Alpha virt. eigenvalues --   -0.26129  -0.14724  -0.13991  -0.12716  -0.11190
 Alpha virt. eigenvalues --   -0.10099  -0.09254  -0.07989  -0.07923  -0.07472
 Alpha virt. eigenvalues --   -0.07210  -0.07127  -0.05643  -0.05583  -0.05357

 Mulliken charges:
               1
     1  C    0.066514
     2  C   -0.437486
     3  C   -0.447484
     4  C   -0.136590
     5  C    0.102334
     6  C   -0.422011
     7  C   -0.362213
     8  C    0.116078
     9  C   -0.379742
    10  C    0.058329
    11  C   -0.614907
    12  C    0.869792
    13  C   -0.647990
    14  C    0.613229
    15  H    0.234333
    16  H    0.253240
    17  H    0.242459
    18  H    0.224450
    19  H    0.190834
    20  H    0.219934
    21  H    0.255282
    22  H    0.259307
    23  H    0.242984
    24  H    0.249662
    25  H    0.249662
 Sum of Mulliken charges =   1.00000

 Dipole moment (field-independent basis, Debye):
    X=              0.3165    Y=             -1.0159    Z=              0.0000  Tot=              1.0641
 Quadrupole moment (field-independent basis, Debye-Ang):
   XX=            -50.3627   YY=            -36.9850   ZZ=            -84.1257
   XY=            -10.7314   XZ=              0.0000   YZ=              0.0000

 Normal termination of Gaussian 16 at Wed Jul 27 14:12:06 2022.
