 Gaussian 16, Revision C.01,
 Gaussian 16:  ES64L-G16RevC.01  3-Jul-2019

 ---------------------------------------------------------------
 #n M062X/6-311++G(d,p) TD(NStates=1) EmpiricalDispersion=GD3 SP
 ---------------------------------------------------------------

 ----
 SP_0
 ----
 Symbolic Z-matrix:
 Charge =  1 Multiplicity = 1

                         Standard orientation:
 ---------------------------------------------------------------------
 Center     Atomic      Atomic             Coordinates (Angstroms)
 Number     Number       Type             X           Y           Z
 ---------------------------------------------------------------------
      1          6           0       -2.356059   -1.545433    0.000000
      2          6           0       -2.299706   -2.939048    0.000000
      3          6           0       -1.061771   -3.589942    0.000000
      4          6           0        0.089082   -2.870104    0.000000
      5          6           0        2.369182    1.496857    0.000000
      6          6           0        2.336898    2.947259    0.000000
      7          6           0        1.138092    3.617387    0.000000
      8          6           0       -0.025750    2.861718    0.000000
      9          6           0       -1.279047    0.690269    0.000000
     10          6           0        1.241541   -0.709474    0.000000
     11          6           0       -1.210975   -0.804112    0.000000
     12          6           0        0.062084   -1.449442    0.000000
     13          6           0        0.000000    1.410816    0.000000
     14          6           0        1.216130    0.739971    0.000000
     15          1           0       -3.319736   -1.050606    0.000000
     16          1           0       -3.215397   -3.512808    0.000000
     17          1           0       -1.026375   -4.669938    0.000000
     18          1           0        1.052233   -3.364438    0.000000
     19          1           0        2.200234   -1.209149    0.000000
     20          1           0        3.336441    1.010292    0.000000
     21          1           0        3.277029    3.482482    0.000000
     22          1           0        1.099563    4.695696    0.000000
     23          1           0       -0.993712    3.348439    0.000000
     24          1           0       -1.864240    1.064850    0.859585
     25          1           0       -1.864240    1.064850   -0.859585
 ---------------------------------------------------------------------

 SCF Done:  E(RM062X) =  -539.751309938     A.U. after   16 cycles

 Excitation energies and oscillator strengths:

 Excited State   1:      Singlet-A'     2.6244 eV  472.43 nm  f=0.0185  <S**2>=0.000
      47 -> 48         0.70337
 This state for optimization and/or second-order correction.
 Total Energy, E(TD-HF/TD-DFT) =  -539.654865563
 Copying the excited state density for this state as the 1-particle RhoCI density.

 The electronic state is 1-A'.
 Alpha  occ. eigenvalues --  -10.77546 -10.73812 -10.72880 -10.72633 -10.72237
 Alpha  occ. eigenvalues --  -10.71875 -10.71845 -10.70994 -10.70794 -10.70230
 Alpha  occ. eigenvalues --  -10.69910 -10.69881 -10.69707 -10.69321  -1.16575
 Alpha  occ. eigenvalues --   -1.12484  -1.06926  -1.05899  -1.01288  -1.00481
 Alpha  occ. eigenvalues --   -0.95525  -0.91028  -0.86449  -0.85874  -0.83794
 Alpha  occ. eigenvalues --   -0.78299  -0.76189  -0.74343  -0.69874  -0.69283
 Alpha  occ. eigenvalues --   -0.68288  -0.68081  -0.68024  -0.65345  -0.64260
 Alpha  occ. eigenvalues --   -0.62650  -0.61582  -0.60525  -0.59259  -0.59193
 Alpha  occ. eigenvalues --   -0.56852  -0.55450  -0.54305  -0.52437  -0.47488
 Alpha  occ. eigenvalues --   -0.46136  -0.43623
 Alpha virt. eigenvalues --   -0.26116  -0.14699  -0.14036  -0.12747  -0.11194
 Alpha virt. eigenvalues --   -0.10095  -0.09268  -0.07954  -0.07902  -0.07488
 Alpha virt. eigenvalues --   -0.07213  -0.07128  -0.05649  -0.05571  -0.05354

 Mulliken charges:
               1
     1  C    0.069170
     2  C   -0.402228
     3  C   -0.432126
     4  C    0.040155
     5  C   -0.014706
     6  C   -0.447760
     7  C   -0.410831
     8  C    0.117822
     9  C   -0.340761
    10  C    0.086377
    11  C   -0.645489
    12  C    0.709583
    13  C   -0.612118
    14  C    0.662975
    15  H    0.239598
    16  H    0.261887
    17  H    0.252165
    18  H    0.225623
    19  H    0.189395
    20  H    0.218676
    21  H    0.245438
    22  H    0.250917
    23  H    0.235216
    24  H    0.250511
    25  H    0.250511
 Sum of Mulliken charges =   1.00000

 Dipole moment (field-independent basis, Debye):
    X=             -0.4254    Y=             -1.1511    Z=              0.0000  Tot=              1.2272
 Quadrupole moment (field-independent basis, Debye-Ang):
   XX=            -51.0620   YY=            -36.1837   ZZ=            -84.1245
   XY=             10.2561   XZ=             -0.0000   YZ=              0.0000

 Normal termination of Gaussian 16 at Wed Jul 27 12:43:03 2022.
