 Gaussian 16, Revision C.01,
 Gaussian 16:  ES64L-G16RevC.01  3-Jul-2019

 ---------------------------------------------------------------
 #n M062X/6-311++G(d,p) TD(NStates=1) EmpiricalDispersion=GD3 SP
 ---------------------------------------------------------------

 ----
 SP_8
 ----
 Symbolic Z-matrix:
 Charge =  1 Multiplicity = 1

                         Standard orientation:
 ---------------------------------------------------------------------
 Center     Atomic      Atomic             Coordinates (Angstroms)
 Number     Number       Type             X           Y           Z
 ---------------------------------------------------------------------
      1          6           0       -2.373702   -1.529845    0.000000
      2          6           0       -2.323090   -2.914815    0.000000
      3          6           0       -1.092549   -3.579574    0.000000
      4          6           0        0.064585   -2.873638    0.000000
      5          6           0        2.379444    1.475028    0.000000
      6          6           0        2.363068    2.927716    0.000000
      7          6           0        1.171826    3.611359    0.000000
      8          6           0       -0.002647    2.855519    0.000000
      9          6           0       -1.269942    0.707013    0.000000
     10          6           0        1.241063   -0.709596    0.000000
     11          6           0       -1.209629   -0.802772    0.000000
     12          6           0        0.032857   -1.449733    0.000000
     13          6           0        0.000000    1.412641    0.000000
     14          6           0        1.231785    0.715577    0.000000
     15          1           0       -3.317379   -0.999346    0.000000
     16          1           0       -3.251336   -3.467236    0.000000
     17          1           0       -1.048881   -4.658623    0.000000
     18          1           0        1.010022   -3.399417    0.000000
     19          1           0        2.183459   -1.239649    0.000000
     20          1           0        3.330466    0.956221    0.000000
     21          1           0        3.299139    3.470177    0.000000
     22          1           0        1.158011    4.690924    0.000000
     23          1           0       -0.952089    3.378712    0.000000
     24          1           0       -1.844915    1.099483    0.859585
     25          1           0       -1.844915    1.099483   -0.859585
 ---------------------------------------------------------------------

 SCF Done:  E(RM062X) =  -539.750342591     A.U. after   16 cycles

 Excitation energies and oscillator strengths:

 Excited State   1:      Singlet-A'     2.6496 eV  467.93 nm  f=0.0223  <S**2>=0.000
      47 -> 48         0.70327
 This state for optimization and/or second-order correction.
 Total Energy, E(TD-HF/TD-DFT) =  -539.652969833
 Copying the excited state density for this state as the 1-particle RhoCI density.

 The electronic state is 1-A'.
 Alpha  occ. eigenvalues --  -10.77644 -10.73451 -10.73066 -10.72729 -10.72111
 Alpha  occ. eigenvalues --  -10.71643 -10.71378 -10.71265 -10.71020 -10.70398
 Alpha  occ. eigenvalues --  -10.69978 -10.69963 -10.69647 -10.69564  -1.16552
 Alpha  occ. eigenvalues --   -1.12525  -1.06888  -1.05836  -1.01366  -1.00542
 Alpha  occ. eigenvalues --   -0.95517  -0.91006  -0.86479  -0.85875  -0.83806
 Alpha  occ. eigenvalues --   -0.78311  -0.76156  -0.74332  -0.69577  -0.69320
 Alpha  occ. eigenvalues --   -0.68466  -0.68148  -0.68092  -0.65084  -0.64423
 Alpha  occ. eigenvalues --   -0.62758  -0.61590  -0.60455  -0.59275  -0.59045
 Alpha  occ. eigenvalues --   -0.56991  -0.55284  -0.54574  -0.52417  -0.47286
 Alpha  occ. eigenvalues --   -0.46142  -0.43803
 Alpha virt. eigenvalues --   -0.26092  -0.14788  -0.14008  -0.12742  -0.11184
 Alpha virt. eigenvalues --   -0.10092  -0.09243  -0.07972  -0.07930  -0.07483
 Alpha virt. eigenvalues --   -0.07208  -0.07138  -0.05650  -0.05578  -0.05344

 Mulliken charges:
               1
     1  C    0.059505
     2  C   -0.426292
     3  C   -0.436308
     4  C   -0.030379
     5  C    0.048052
     6  C   -0.436640
     7  C   -0.388456
     8  C    0.133805
     9  C   -0.339913
    10  C    0.083251
    11  C   -0.648864
    12  C    0.779410
    13  C   -0.620988
    14  C    0.604739
    15  H    0.236677
    16  H    0.260128
    17  H    0.248191
    18  H    0.226391
    19  H    0.189817
    20  H    0.216779
    21  H    0.248846
    22  H    0.252642
    23  H    0.237471
    24  H    0.251068
    25  H    0.251068
 Sum of Mulliken charges =   1.00000

 Dipole moment (field-independent basis, Debye):
    X=             -0.1420    Y=             -0.6274    Z=             -0.0000  Tot=              0.6433
 Quadrupole moment (field-independent basis, Debye-Ang):
   XX=            -51.2635   YY=            -36.1124   ZZ=            -84.1317
   XY=             10.0890   XZ=             -0.0000   YZ=              0.0000

 Normal termination of Gaussian 16 at Wed Jul 27 13:40:50 2022.
