 Gaussian 16, Revision C.01,
 Gaussian 16:  ES64L-G16RevC.01  3-Jul-2019

 ---------------------------------------------------------------
 #n M062X/6-311++G(d,p) TD(NStates=1) EmpiricalDispersion=GD3 SP
 ---------------------------------------------------------------

 -----
 SP_10
 -----
 Symbolic Z-matrix:
 Charge =  1 Multiplicity = 1

                         Standard orientation:
 ---------------------------------------------------------------------
 Center     Atomic      Atomic             Coordinates (Angstroms)
 Number     Number       Type             X           Y           Z
 ---------------------------------------------------------------------
      1          6           0       -2.375462   -1.524928    0.000000
      2          6           0       -2.323631   -2.908113    0.000000
      3          6           0       -1.093915   -3.577754    0.000000
      4          6           0        0.060069   -2.878774    0.000000
      5          6           0        2.377541    1.468534    0.000000
      6          6           0        2.365422    2.927619    0.000000
      7          6           0        1.177846    3.614559    0.000000
      8          6           0        0.002481    2.856705    0.000000
      9          6           0       -1.267430    0.711593    0.000000
     10          6           0        1.238696   -0.713857    0.000000
     11          6           0       -1.211524   -0.803936    0.000000
     12          6           0        0.025923   -1.451450    0.000000
     13          6           0        0.000000    1.410433    0.000000
     14          6           0        1.234055    0.708828    0.000000
     15          1           0       -3.315502   -0.988195    0.000000
     16          1           0       -3.254735   -3.455770    0.000000
     17          1           0       -1.050596   -4.656639    0.000000
     18          1           0        1.002449   -3.409734    0.000000
     19          1           0        2.177727   -1.250061    0.000000
     20          1           0        3.325867    0.944346    0.000000
     21          1           0        3.301803    3.469863    0.000000
     22          1           0        1.169583    4.694281    0.000000
     23          1           0       -0.943687    3.386331    0.000000
     24          1           0       -1.836669    1.114414    0.859585
     25          1           0       -1.836669    1.114414   -0.859585
 ---------------------------------------------------------------------

 SCF Done:  E(RM062X) =  -539.747163214     A.U. after   16 cycles

 Excitation energies and oscillator strengths:

 Excited State   1:      Singlet-A'     2.6185 eV  473.50 nm  f=0.0222  <S**2>=0.000
      47 -> 48         0.70325
 This state for optimization and/or second-order correction.
 Total Energy, E(TD-HF/TD-DFT) =  -539.650936881
 Copying the excited state density for this state as the 1-particle RhoCI density.

 The electronic state is 1-A'.
 Alpha  occ. eigenvalues --  -10.77646 -10.73432 -10.73101 -10.72742 -10.72097
 Alpha  occ. eigenvalues --  -10.71650 -10.71315 -10.71306 -10.71034 -10.70391
 Alpha  occ. eigenvalues --  -10.70012 -10.69928 -10.69687 -10.69509  -1.16580
 Alpha  occ. eigenvalues --   -1.12546  -1.06872  -1.05864  -1.01391  -1.00630
 Alpha  occ. eigenvalues --   -0.95457  -0.90994  -0.86497  -0.85866  -0.83801
 Alpha  occ. eigenvalues --   -0.78291  -0.76183  -0.74310  -0.69579  -0.69320
 Alpha  occ. eigenvalues --   -0.68477  -0.68143  -0.68093  -0.65130  -0.64460
 Alpha  occ. eigenvalues --   -0.62708  -0.61523  -0.60522  -0.59225  -0.59015
 Alpha  occ. eigenvalues --   -0.57023  -0.55264  -0.54540  -0.52412  -0.47403
 Alpha  occ. eigenvalues --   -0.46153  -0.43685
 Alpha virt. eigenvalues --   -0.26092  -0.14827  -0.13985  -0.12729  -0.11185
 Alpha virt. eigenvalues --   -0.10093  -0.09244  -0.07973  -0.07921  -0.07485
 Alpha virt. eigenvalues --   -0.07209  -0.07137  -0.05653  -0.05578  -0.05346

 Mulliken charges:
               1
     1  C    0.054626
     2  C   -0.431577
     3  C   -0.435324
     4  C   -0.047979
     5  C    0.058647
     6  C   -0.434329
     7  C   -0.383354
     8  C    0.141669
     9  C   -0.343404
    10  C    0.078685
    11  C   -0.650049
    12  C    0.803687
    13  C   -0.619792
    14  C    0.589486
    15  H    0.236274
    16  H    0.260386
    17  H    0.247541
    18  H    0.226953
    19  H    0.189749
    20  H    0.215851
    21  H    0.249217
    22  H    0.252416
    23  H    0.237800
    24  H    0.251411
    25  H    0.251411
 Sum of Mulliken charges =   1.00000

 Dipole moment (field-independent basis, Debye):
    X=             -0.1459    Y=             -0.6276    Z=             -0.0000  Tot=              0.6443
 Quadrupole moment (field-independent basis, Debye-Ang):
   XX=            -51.3694   YY=            -36.0224   ZZ=            -84.1293
   XY=             10.0242   XZ=             -0.0000   YZ=              0.0000

 Normal termination of Gaussian 16 at Wed Jul 27 13:56:27 2022.
