 Gaussian 16, Revision C.01,
 Gaussian 16:  ES64L-G16RevC.01  3-Jul-2019

 ---------------------------------------------------------------
 #n M062X/6-311++G(d,p) TD(NStates=1) EmpiricalDispersion=GD3 SP
 ---------------------------------------------------------------

 -----
 SP_14
 -----
 Symbolic Z-matrix:
 Charge =  1 Multiplicity = 1

                         Standard orientation:
 ---------------------------------------------------------------------
 Center     Atomic      Atomic             Coordinates (Angstroms)
 Number     Number       Type             X           Y           Z
 ---------------------------------------------------------------------
      1          6           0       -2.384227   -1.517058    0.000000
      2          6           0       -2.335188   -2.895934    0.000000
      3          6           0       -1.109247   -3.572469    0.000000
      4          6           0        0.047783   -2.880443    0.000000
      5          6           0        2.382563    1.457613    0.000000
      6          6           0        2.378438    2.917756    0.000000
      7          6           0        1.194714    3.611403    0.000000
      8          6           0        0.013983    2.853515    0.000000
      9          6           0       -1.262781    0.719907    0.000000
     10          6           0        1.238485   -0.713927    0.000000
     11          6           0       -1.210889   -0.803300    0.000000
     12          6           0        0.011306   -1.451400    0.000000
     13          6           0        0.000000    1.411397    0.000000
     14          6           0        1.241713    0.696536    0.000000
     15          1           0       -3.314011   -0.962639    0.000000
     16          1           0       -3.272422   -3.432840    0.000000
     17          1           0       -1.061781   -4.650981    0.000000
     18          1           0        0.981085   -3.426995    0.000000
     19          1           0        2.169150   -1.265198    0.000000
     20          1           0        3.322543    0.917423    0.000000
     21          1           0        3.312875    3.463670    0.000000
     22          1           0        1.198813    4.691583    0.000000
     23          1           0       -0.922662    3.401240    0.000000
     24          1           0       -1.826753    1.131584    0.859585
     25          1           0       -1.826753    1.131584   -0.859585
 ---------------------------------------------------------------------

 SCF Done:  E(RM062X) =  -539.744165479     A.U. after   16 cycles

 Excitation energies and oscillator strengths:

 Excited State   1:      Singlet-A'     2.6282 eV  471.75 nm  f=0.0243  <S**2>=0.000
      47 -> 48         0.70311
 This state for optimization and/or second-order correction.
 Total Energy, E(TD-HF/TD-DFT) =  -539.647581077
 Copying the excited state density for this state as the 1-particle RhoCI density.

 The electronic state is 1-A'.
 Alpha  occ. eigenvalues --  -10.77669 -10.73310 -10.73240 -10.72651 -10.72205
 Alpha  occ. eigenvalues --  -10.71553 -10.71354 -10.71090 -10.71049 -10.70656
 Alpha  occ. eigenvalues --  -10.70145 -10.69854 -10.69793 -10.69338  -1.16580
 Alpha  occ. eigenvalues --   -1.12574  -1.06876  -1.05881  -1.01405  -1.00659
 Alpha  occ. eigenvalues --   -0.95463  -0.91013  -0.86495  -0.85853  -0.83784
 Alpha  occ. eigenvalues --   -0.78305  -0.76166  -0.74302  -0.69659  -0.69210
 Alpha  occ. eigenvalues --   -0.68527  -0.68151  -0.68109  -0.65003  -0.64511
 Alpha  occ. eigenvalues --   -0.62752  -0.61507  -0.60497  -0.59276  -0.58986
 Alpha  occ. eigenvalues --   -0.57035  -0.55147  -0.54606  -0.52422  -0.47296
 Alpha  occ. eigenvalues --   -0.46165  -0.43770
 Alpha virt. eigenvalues --   -0.26092  -0.14878  -0.13951  -0.12709  -0.11184
 Alpha virt. eigenvalues --   -0.10095  -0.09237  -0.07985  -0.07923  -0.07481
 Alpha virt. eigenvalues --   -0.07208  -0.07136  -0.05654  -0.05582  -0.05347

 Mulliken charges:
               1
     1  C    0.049241
     2  C   -0.441836
     3  C   -0.434520
     4  C   -0.095712
     5  C    0.084554
     6  C   -0.428166
     7  C   -0.371438
     8  C    0.150585
     9  C   -0.355650
    10  C    0.067436
    11  C   -0.647504
    12  C    0.858465
    13  C   -0.625131
    14  C    0.570298
    15  H    0.235239
    16  H    0.259483
    17  H    0.245542
    18  H    0.227264
    19  H    0.190139
    20  H    0.215005
    21  H    0.250895
    22  H    0.253263
    23  H    0.239274
    24  H    0.251637
    25  H    0.251637
 Sum of Mulliken charges =   1.00000

 Dipole moment (field-independent basis, Debye):
    X=              0.0005    Y=             -0.3661    Z=              0.0000  Tot=              0.3661
 Quadrupole moment (field-independent basis, Debye-Ang):
   XX=            -51.4798   YY=            -35.9758   ZZ=            -84.1284
   XY=              9.9533   XZ=             -0.0000   YZ=              0.0000

 Normal termination of Gaussian 16 at Wed Jul 27 14:25:13 2022.
