 Gaussian 16, Revision C.01,
 Gaussian 16:  ES64L-G16RevC.01  3-Jul-2019

 ---------------------------------------------------------------
 #n M062X/6-311++G(d,p) TD(NStates=1) EmpiricalDispersion=GD3 SP
 ---------------------------------------------------------------

 ----
 SP_8
 ----
 Symbolic Z-matrix:
 Charge =  1 Multiplicity = 1

                         Standard orientation:
 ---------------------------------------------------------------------
 Center     Atomic      Atomic             Coordinates (Angstroms)
 Number     Number       Type             X           Y           Z
 ---------------------------------------------------------------------
      1          6           0       -2.378968   -1.531844    0.000000
      2          6           0       -2.333607   -2.916066    0.000000
      3          6           0       -1.105152   -3.577962    0.000000
      4          6           0        0.061371   -2.865073    0.000000
      5          6           0        2.388312    1.477101    0.000000
      6          6           0        2.371378    2.918088    0.000000
      7          6           0        1.176624    3.601860    0.000000
      8          6           0       -0.001402    2.849993    0.000000
      9          6           0       -1.270362    0.706185    0.000000
     10          6           0        1.245591   -0.701141    0.000000
     11          6           0       -1.205182   -0.799807    0.000000
     12          6           0        0.032123   -1.446325    0.000000
     13          6           0        0.000000    1.418001    0.000000
     14          6           0        1.234968    0.716821    0.000000
     15          1           0       -3.319759   -0.996076    0.000000
     16          1           0       -3.262321   -3.467299    0.000000
     17          1           0       -1.056639   -4.656930    0.000000
     18          1           0        1.003929   -3.396123    0.000000
     19          1           0        2.186436   -1.233999    0.000000
     20          1           0        3.336465    0.953013    0.000000
     21          1           0        3.304856    3.464640    0.000000
     22          1           0        1.164061    4.681634    0.000000
     23          1           0       -0.947969    3.378464    0.000000
     24          1           0       -1.851614    1.086850    0.859585
     25          1           0       -1.851614    1.086850   -0.859585
 ---------------------------------------------------------------------

 SCF Done:  E(RM062X) =  -539.753836743     A.U. after   15 cycles

 Excitation energies and oscillator strengths:

 Excited State   1:      Singlet-A'     2.7182 eV  456.13 nm  f=0.0248  <S**2>=0.000
      47 -> 48         0.70323
 This state for optimization and/or second-order correction.
 Total Energy, E(TD-HF/TD-DFT) =  -539.653946396
 Copying the excited state density for this state as the 1-particle RhoCI density.

 The electronic state is 1-A'.
 Alpha  occ. eigenvalues --  -10.77663 -10.73299 -10.73209 -10.72613 -10.72248
 Alpha  occ. eigenvalues --  -10.71421 -10.71335 -10.71269 -10.71007 -10.70681
 Alpha  occ. eigenvalues --  -10.70044 -10.69898 -10.69730 -10.69500  -1.16503
 Alpha  occ. eigenvalues --   -1.12508  -1.06912  -1.05792  -1.01347  -1.00406
 Alpha  occ. eigenvalues --   -0.95627  -0.91033  -0.86452  -0.85884  -0.83807
 Alpha  occ. eigenvalues --   -0.78353  -0.76096  -0.74365  -0.69584  -0.69251
 Alpha  occ. eigenvalues --   -0.68507  -0.68174  -0.68101  -0.64888  -0.64402
 Alpha  occ. eigenvalues --   -0.62896  -0.61699  -0.60295  -0.59421  -0.59050
 Alpha  occ. eigenvalues --   -0.56961  -0.55218  -0.54714  -0.52428  -0.46978
 Alpha  occ. eigenvalues --   -0.46127  -0.44101
 Alpha virt. eigenvalues --   -0.26089  -0.14762  -0.14027  -0.12752  -0.11181
 Alpha virt. eigenvalues --   -0.10090  -0.09234  -0.07981  -0.07949  -0.07479
 Alpha virt. eigenvalues --   -0.07205  -0.07141  -0.05647  -0.05581  -0.05339

 Mulliken charges:
               1
     1  C    0.064639
     2  C   -0.426952
     3  C   -0.438716
     4  C   -0.038113
     5  C    0.054487
     6  C   -0.435266
     7  C   -0.386912
     8  C    0.126732
     9  C   -0.340584
    10  C    0.084585
    11  C   -0.646706
    12  C    0.776834
    13  C   -0.627071
    14  C    0.613761
    15  H    0.236258
    16  H    0.258718
    17  H    0.247469
    18  H    0.225599
    19  H    0.190180
    20  H    0.217758
    21  H    0.249785
    22  H    0.253967
    23  H    0.238171
    24  H    0.250691
    25  H    0.250691
 Sum of Mulliken charges =   1.00000

 Dipole moment (field-independent basis, Debye):
    X=              0.0096    Y=             -0.3632    Z=             -0.0000  Tot=              0.3634
 Quadrupole moment (field-independent basis, Debye-Ang):
   XX=            -51.1573   YY=            -36.2420   ZZ=            -84.1362
   XY=             10.1479   XZ=              0.0000   YZ=             -0.0000

 Normal termination of Gaussian 16 at Wed Jul 27 13:37:57 2022.
