 Gaussian 16, Revision C.01,
 Gaussian 16:  ES64L-G16RevC.01  3-Jul-2019

 ---------------------------------------------------------------
 #n M062X/6-311++G(d,p) TD(NStates=1) EmpiricalDispersion=GD3 SP
 ---------------------------------------------------------------

 -----
 SP_12
 -----
 Symbolic Z-matrix:
 Charge =  1 Multiplicity = 1

                         Standard orientation:
 ---------------------------------------------------------------------
 Center     Atomic      Atomic             Coordinates (Angstroms)
 Number     Number       Type             X           Y           Z
 ---------------------------------------------------------------------
      1          6           0       -2.387728   -1.524015    0.000000
      2          6           0       -2.345130   -2.903899    0.000000
      3          6           0       -1.120400   -3.572654    0.000000
      4          6           0        0.049215   -2.866747    0.000000
      5          6           0        2.393337    1.466189    0.000000
      6          6           0        2.384282    2.908256    0.000000
      7          6           0        1.193349    3.598737    0.000000
      8          6           0        0.010002    2.846821    0.000000
      9          6           0       -1.265754    0.714482    0.000000
     10          6           0        1.245453   -0.701212    0.000000
     11          6           0       -1.204509   -0.799228    0.000000
     12          6           0        0.017563   -1.446302    0.000000
     13          6           0        0.000000    1.418965    0.000000
     14          6           0        1.242645    0.704553    0.000000
     15          1           0       -3.318280   -0.970580    0.000000
     16          1           0       -3.279977   -3.444412    0.000000
     17          1           0       -1.067714   -4.651270    0.000000
     18          1           0        0.982708   -3.413368    0.000000
     19          1           0        2.177961   -1.249123    0.000000
     20          1           0        3.333158    0.926122    0.000000
     21          1           0        3.315823    3.458513    0.000000
     22          1           0        1.193123    4.678990    0.000000
     23          1           0       -0.927060    3.393369    0.000000
     24          1           0       -1.841848    1.104042    0.859585
     25          1           0       -1.841848    1.104042   -0.859585
 ---------------------------------------------------------------------

 SCF Done:  E(RM062X) =  -539.751186607     A.U. after   15 cycles

 Excitation energies and oscillator strengths:

 Excited State   1:      Singlet-A'     2.7258 eV  454.86 nm  f=0.0269  <S**2>=0.000
      47 -> 48         0.70284
 This state for optimization and/or second-order correction.
 Total Energy, E(TD-HF/TD-DFT) =  -539.651016573
 Copying the excited state density for this state as the 1-particle RhoCI density.

 The electronic state is 1-A'.
 Alpha  occ. eigenvalues --  -10.77670 -10.73412 -10.73101 -10.72515 -10.72349
 Alpha  occ. eigenvalues --  -10.71667 -10.71045 -10.71042 -10.71016 -10.70953
 Alpha  occ. eigenvalues --  -10.70178 -10.69899 -10.69762 -10.69330  -1.16507
 Alpha  occ. eigenvalues --   -1.12527  -1.06921  -1.05819  -1.01346  -1.00424
 Alpha  occ. eigenvalues --   -0.95635  -0.91054  -0.86445  -0.85870  -0.83790
 Alpha  occ. eigenvalues --   -0.78365  -0.76085  -0.74359  -0.69699  -0.69143
 Alpha  occ. eigenvalues --   -0.68544  -0.68152  -0.68115  -0.64823  -0.64400
 Alpha  occ. eigenvalues --   -0.62932  -0.61679  -0.60270  -0.59469  -0.59060
 Alpha  occ. eigenvalues --   -0.56951  -0.55121  -0.54744  -0.52440  -0.46889
 Alpha  occ. eigenvalues --   -0.46141  -0.44169
 Alpha virt. eigenvalues --   -0.26092  -0.14805  -0.13991  -0.12734  -0.11181
 Alpha virt. eigenvalues --   -0.10092  -0.09231  -0.07990  -0.07946  -0.07476
 Alpha virt. eigenvalues --   -0.07205  -0.07140  -0.05648  -0.05584  -0.05341

 Mulliken charges:
               1
     1  C    0.059017
     2  C   -0.437029
     3  C   -0.439072
     4  C   -0.083921
     5  C    0.080238
     6  C   -0.429462
     7  C   -0.374682
     8  C    0.134905
     9  C   -0.352495
    10  C    0.074453
    11  C   -0.644551
    12  C    0.829533
    13  C   -0.631304
    14  C    0.594644
    15  H    0.235247
    16  H    0.257820
    17  H    0.245521
    18  H    0.226024
    19  H    0.190463
    20  H    0.217001
    21  H    0.251512
    22  H    0.254821
    23  H    0.239696
    24  H    0.250810
    25  H    0.250810
 Sum of Mulliken charges =   1.00000

 Dipole moment (field-independent basis, Debye):
    X=              0.1557    Y=             -0.1009    Z=             -0.0000  Tot=              0.1856
 Quadrupole moment (field-independent basis, Debye-Ang):
   XX=            -51.2615   YY=            -36.1779   ZZ=            -84.1343
   XY=             10.0860   XZ=              0.0000   YZ=             -0.0000

 Normal termination of Gaussian 16 at Wed Jul 27 14:06:18 2022.
