 Gaussian 16, Revision C.01,
 Gaussian 16:  ES64L-G16RevC.01  3-Jul-2019

 ---------------------------------------------------------------
 #n M062X/6-311++G(d,p) TD(NStates=1) EmpiricalDispersion=GD3 SP
 ---------------------------------------------------------------

 -----
 SP_18
 -----
 Symbolic Z-matrix:
 Charge =  1 Multiplicity = 1

                         Standard orientation:
 ---------------------------------------------------------------------
 Center     Atomic      Atomic             Coordinates (Angstroms)
 Number     Number       Type             X           Y           Z
 ---------------------------------------------------------------------
      1          6           0        2.483262   -1.400910    0.000000
      2          6           0        3.677130   -0.725701    0.000000
      3          6           0        3.690000    0.661686    0.000000
      4          6           0        2.493229    1.376039    0.000000
      5          6           0       -2.432708    1.438437    0.000000
      6          6           0       -3.676991    0.765944    0.000000
      7          6           0       -3.725101   -0.617695    0.000000
      8          6           0       -2.501392   -1.319999    0.000000
      9          6           0       -0.037703   -1.452959    0.000000
     10          6           0        0.000000    1.429361    0.000000
     11          6           0        1.263420   -0.671939    0.000000
     12          6           0        1.266987    0.679037    0.000000
     13          6           0       -1.261155   -0.682389    0.000000
     14          6           0       -1.206658    0.781811    0.000000
     15          1           0        2.393917   -2.481070    0.000000
     16          1           0        4.585445   -1.308557    0.000000
     17          1           0        4.604440    1.237493    0.000000
     18          1           0        2.571575    2.455675    0.000000
     19          1           0        0.071759    2.509455    0.000000
     20          1           0       -2.363093    2.521809    0.000000
     21          1           0       -4.614104    1.307661    0.000000
     22          1           0       -4.686152   -1.113551    0.000000
     23          1           0       -2.581627   -2.403901    0.000000
     24          1           0       -0.088036   -2.144680    0.859585
     25          1           0       -0.088036   -2.144680   -0.859585
 ---------------------------------------------------------------------

 SCF Done:  E(RM062X) =  -539.747256257     A.U. after   15 cycles

 Excitation energies and oscillator strengths:

 Excited State   1:      Singlet-A'     2.8038 eV  442.20 nm  f=0.0307  <S**2>=0.000
      47 -> 48         0.69991
 This state for optimization and/or second-order correction.
 Total Energy, E(TD-HF/TD-DFT) =  -539.644219014
 Copying the excited state density for this state as the 1-particle RhoCI density.

 The electronic state is 1-A'.
 Alpha  occ. eigenvalues --  -10.77524 -10.74008 -10.72745 -10.72407 -10.72368
 Alpha  occ. eigenvalues --  -10.72126 -10.71989 -10.70983 -10.70535 -10.70423
 Alpha  occ. eigenvalues --  -10.70363 -10.69911 -10.69399 -10.68928  -1.16509
 Alpha  occ. eigenvalues --   -1.12496  -1.07065  -1.05976  -1.01206  -1.00157
 Alpha  occ. eigenvalues --   -0.95836  -0.91213  -0.86336  -0.85824  -0.83699
 Alpha  occ. eigenvalues --   -0.78440  -0.76037  -0.74390  -0.70255  -0.69057
 Alpha  occ. eigenvalues --   -0.68469  -0.68158  -0.67767  -0.65022  -0.63925
 Alpha  occ. eigenvalues --   -0.62906  -0.61775  -0.60106  -0.59680  -0.59484
 Alpha  occ. eigenvalues --   -0.56686  -0.55214  -0.54260  -0.52541  -0.46636
 Alpha  occ. eigenvalues --   -0.46117  -0.44422
 Alpha virt. eigenvalues --   -0.26145  -0.14774  -0.13927  -0.12685  -0.11194
 Alpha virt. eigenvalues --   -0.10106  -0.09260  -0.07997  -0.07904  -0.07470
 Alpha virt. eigenvalues --   -0.07213  -0.07119  -0.05644  -0.05586  -0.05367

 Mulliken charges:
               1
     1  C    0.050953
     2  C   -0.439415
     3  C   -0.443745
     4  C   -0.188307
     5  C    0.116959
     6  C   -0.415890
     7  C   -0.348810
     8  C    0.126339
     9  C   -0.407597
    10  C    0.032691
    11  C   -0.590343
    12  C    0.949872
    13  C   -0.655030
    14  C    0.588724
    15  H    0.234232
    16  H    0.253089
    17  H    0.241005
    18  H    0.225498
    19  H    0.191318
    20  H    0.218805
    21  H    0.256567
    22  H    0.259448
    23  H    0.244434
    24  H    0.249603
    25  H    0.249603
 Sum of Mulliken charges =   1.00000

 Dipole moment (field-independent basis, Debye):
    X=             -1.1879    Y=              0.2049    Z=              0.0000  Tot=              1.2055
 Quadrupole moment (field-independent basis, Debye-Ang):
   XX=            -31.0262   YY=            -56.3386   ZZ=            -84.1186
   XY=              0.6218   XZ=             -0.0000   YZ=             -0.0000

 Normal termination of Gaussian 16 at Wed Jul 27 14:43:18 2022.
