 Gaussian 16, Revision C.01,
 Gaussian 16:  ES64L-G16RevC.01  3-Jul-2019

 ---------------------------------------------------------------
 #n M062X/6-311++G(d,p) TD(NStates=1) EmpiricalDispersion=GD3 SP
 ---------------------------------------------------------------

 ----
 SP_4
 ----
 Symbolic Z-matrix:
 Charge =  1 Multiplicity = 1

                         Standard orientation:
 ---------------------------------------------------------------------
 Center     Atomic      Atomic             Coordinates (Angstroms)
 Number     Number       Type             X           Y           Z
 ---------------------------------------------------------------------
      1          6           0       -2.364896   -1.537656    0.000000
      2          6           0       -2.311437   -2.926948    0.000000
      3          6           0       -1.077183   -3.584788    0.000000
      4          6           0        0.076832   -2.871898    0.000000
      5          6           0        2.374342    1.485944    0.000000
      6          6           0        2.350012    2.937510    0.000000
      7          6           0        1.154971    3.614409    0.000000
      8          6           0       -0.014176    2.858641    0.000000
      9          6           0       -1.274517    0.698658    0.000000
     10          6           0        1.241288   -0.709533    0.000000
     11          6           0       -1.210295   -0.803428    0.000000
     12          6           0        0.047467   -1.449638    0.000000
     13          6           0        0.000000    1.411714    0.000000
     14          6           0        1.224002    0.727798    0.000000
     15          1           0       -3.318642   -1.024951    0.000000
     16          1           0       -3.233446   -3.490058    0.000000
     17          1           0       -1.037657   -4.664281    0.000000
     18          1           0        1.031186   -3.381991    0.000000
     19          1           0        2.191889   -1.224431    0.000000
     20          1           0        3.333544    0.983224    0.000000
     21          1           0        3.288088    3.476334    0.000000
     22          1           0        1.128800    4.693390    0.000000
     23          1           0       -0.972949    3.363638    0.000000
     24          1           0       -1.854633    1.082204    0.859585
     25          1           0       -1.854633    1.082204   -0.859585
 ---------------------------------------------------------------------

 SCF Done:  E(RM062X) =  -539.751480823     A.U. after   16 cycles

 Excitation energies and oscillator strengths:

 Excited State   1:      Singlet-A'     2.6379 eV  470.02 nm  f=0.0203  <S**2>=0.000
      47 -> 48         0.70334
 This state for optimization and/or second-order correction.
 Total Energy, E(TD-HF/TD-DFT) =  -539.654540706
 Copying the excited state density for this state as the 1-particle RhoCI density.

 The electronic state is 1-A'.
 Alpha  occ. eigenvalues --  -10.77603 -10.73635 -10.72852 -10.72809 -10.71997
 Alpha  occ. eigenvalues --  -10.71940 -10.71610 -10.71026 -10.71007 -10.70136
 Alpha  occ. eigenvalues --  -10.70097 -10.69844 -10.69736 -10.69483  -1.16560
 Alpha  occ. eigenvalues --   -1.12503  -1.06900  -1.05854  -1.01334  -1.00513
 Alpha  occ. eigenvalues --   -0.95518  -0.91009  -0.86469  -0.85879  -0.83807
 Alpha  occ. eigenvalues --   -0.78303  -0.76172  -0.74338  -0.69684  -0.69318
 Alpha  occ. eigenvalues --   -0.68382  -0.68103  -0.68084  -0.65216  -0.64347
 Alpha  occ. eigenvalues --   -0.62706  -0.61592  -0.60488  -0.59231  -0.59132
 Alpha  occ. eigenvalues --   -0.56936  -0.55377  -0.54458  -0.52421  -0.47388
 Alpha  occ. eigenvalues --   -0.46136  -0.43715
 Alpha virt. eigenvalues --   -0.26101  -0.14742  -0.14028  -0.12749  -0.11188
 Alpha virt. eigenvalues --   -0.10092  -0.09254  -0.07963  -0.07920  -0.07486
 Alpha virt. eigenvalues --   -0.07210  -0.07135  -0.05649  -0.05574  -0.05347

 Mulliken charges:
               1
     1  C    0.064221
     2  C   -0.414548
     3  C   -0.434801
     4  C    0.007981
     5  C    0.018442
     6  C   -0.442324
     7  C   -0.400042
     8  C    0.125711
     9  C   -0.336974
    10  C    0.087225
    11  C   -0.647122
    12  C    0.740201
    13  C   -0.616985
    14  C    0.629725
    15  H    0.238040
    16  H    0.261015
    17  H    0.250180
    18  H    0.226020
    19  H    0.189573
    20  H    0.217687
    21  H    0.247143
    22  H    0.251780
    23  H    0.236225
    24  H    0.250814
    25  H    0.250814
 Sum of Mulliken charges =   1.00000

 Dipole moment (field-independent basis, Debye):
    X=             -0.2852    Y=             -0.8897    Z=             -0.0000  Tot=              0.9343
 Quadrupole moment (field-independent basis, Debye-Ang):
   XX=            -51.1605   YY=            -36.1527   ZZ=            -84.1294
   XY=             10.1685   XZ=              0.0000   YZ=             -0.0000

 Normal termination of Gaussian 16 at Wed Jul 27 13:11:58 2022.
