 Gaussian 16, Revision C.01,
 Gaussian 16:  ES64L-G16RevC.01  3-Jul-2019

 ---------------------------------------------------------------
 #n M062X/6-311++G(d,p) TD(NStates=1) EmpiricalDispersion=GD3 SP
 ---------------------------------------------------------------

 ----
 SP_0
 ----
 Symbolic Z-matrix:
 Charge =  1 Multiplicity = 1

                         Standard orientation:
 ---------------------------------------------------------------------
 Center     Atomic      Atomic             Coordinates (Angstroms)
 Number     Number       Type             X           Y           Z
 ---------------------------------------------------------------------
      1          6           0       -2.366642   -1.549383    0.000000
      2          6           0       -2.320913   -2.941566    0.000000
      3          6           0       -1.087220   -3.586844    0.000000
      4          6           0        0.082364   -2.853030    0.000000
      5          6           0        2.386984    1.500984    0.000000
      6          6           0        2.353838    2.927993    0.000000
      7          6           0        1.148035    3.598404    0.000000
      8          6           0       -0.022989    2.850686    0.000000
      9          6           0       -1.279852    0.688694    0.000000
     10          6           0        1.250399   -0.692556    0.000000
     11          6           0       -1.202148   -0.798021    0.000000
     12          6           0        0.060477   -1.442692    0.000000
     13          6           0        0.000000    1.421502    0.000000
     14          6           0        1.222565    0.742461    0.000000
     15          1           0       -3.324678   -1.043871    0.000000
     16          1           0       -3.237632   -3.512924    0.000000
     17          1           0       -1.042203   -4.666559    0.000000
     18          1           0        1.039876   -3.358047    0.000000
     19          1           0        2.206069   -1.197959    0.000000
     20          1           0        3.348627    1.003724    0.000000
     21          1           0        3.288710    3.471278    0.000000
     22          1           0        1.112067    4.677201    0.000000
     23          1           0       -0.985334    3.348106    0.000000
     24          1           0       -1.877445    1.039627    0.859585
     25          1           0       -1.877445    1.039627   -0.859585
 ---------------------------------------------------------------------

 SCF Done:  E(RM062X) =  -539.757995405     A.U. after   15 cycles

 Excitation energies and oscillator strengths:

 Excited State   1:      Singlet-A'     2.7595 eV  449.30 nm  f=0.0241  <S**2>=0.000
      47 -> 48         0.70371
 This state for optimization and/or second-order correction.
 Total Energy, E(TD-HF/TD-DFT) =  -539.656585116
 Copying the excited state density for this state as the 1-particle RhoCI density.

 The electronic state is 1-A'.
 Alpha  occ. eigenvalues --  -10.77636 -10.73533 -10.72939 -10.72674 -10.72168
 Alpha  occ. eigenvalues --  -10.71622 -10.71610 -10.71091 -10.70982 -10.70425
 Alpha  occ. eigenvalues --  -10.70103 -10.69841 -10.69775 -10.69478  -1.16476
 Alpha  occ. eigenvalues --   -1.12470  -1.06940  -1.05773  -1.01307  -1.00265
 Alpha  occ. eigenvalues --   -0.95711  -0.91050  -0.86427  -0.85895  -0.83810
 Alpha  occ. eigenvalues --   -0.78374  -0.76071  -0.74397  -0.69659  -0.69247
 Alpha  occ. eigenvalues --   -0.68444  -0.68144  -0.68097  -0.64929  -0.64276
 Alpha  occ. eigenvalues --   -0.62923  -0.61795  -0.60209  -0.59483  -0.59140
 Alpha  occ. eigenvalues --   -0.56886  -0.55318  -0.54658  -0.52438  -0.46884
 Alpha  occ. eigenvalues --   -0.46094  -0.44221
 Alpha virt. eigenvalues --   -0.26095  -0.14677  -0.14082  -0.12767  -0.11182
 Alpha virt. eigenvalues --   -0.10088  -0.09240  -0.07975  -0.07952  -0.07479
 Alpha virt. eigenvalues --   -0.07205  -0.07141  -0.05644  -0.05579  -0.05338

 Mulliken charges:
               1
     1  C    0.080607
     2  C   -0.404591
     3  C   -0.436160
     4  C    0.028362
     5  C    0.000262
     6  C   -0.443853
     7  C   -0.409031
     8  C    0.105281
     9  C   -0.335573
    10  C    0.091601
    11  C   -0.642438
    12  C    0.699139
    13  C   -0.627529
    14  C    0.674352
    15  H    0.238441
    16  H    0.259086
    17  H    0.250564
    18  H    0.223820
    19  H    0.190143
    20  H    0.220273
    21  H    0.247176
    22  H    0.253570
    23  H    0.236195
    24  H    0.250151
    25  H    0.250151
 Sum of Mulliken charges =   1.00000

 Dipole moment (field-independent basis, Debye):
    X=             -0.1275    Y=             -0.6249    Z=              0.0000  Tot=              0.6377
 Quadrupole moment (field-independent basis, Debye-Ang):
   XX=            -50.8568   YY=            -36.4886   ZZ=            -84.1374
   XY=             10.3485   XZ=              0.0000   YZ=              0.0000

 Normal termination of Gaussian 16 at Wed Jul 27 12:37:20 2022.
