 Gaussian 16, Revision C.01,
 Gaussian 16:  ES64L-G16RevC.01  3-Jul-2019

 ---------------------------------------------------------------
 #n M062X/6-311++G(d,p) TD(NStates=1) EmpiricalDispersion=GD3 SP
 ---------------------------------------------------------------

 ----
 SP_8
 ----
 Symbolic Z-matrix:
 Charge =  1 Multiplicity = 1

                         Standard orientation:
 ---------------------------------------------------------------------
 Center     Atomic      Atomic             Coordinates (Angstroms)
 Number     Number       Type             X           Y           Z
 ---------------------------------------------------------------------
      1          6           0        2.489946   -1.372740    0.000000
      2          6           0        3.690380   -0.686633    0.000000
      3          6           0        3.684138    0.700830    0.000000
      4          6           0        2.475648    1.400124    0.000000
      5          6           0       -2.450648    1.414866    0.000000
      6          6           0       -3.683543    0.726843    0.000000
      7          6           0       -3.712580   -0.657257    0.000000
      8          6           0       -2.495303   -1.348126    0.000000
      9          6           0       -0.014307   -1.453318    0.000000
     10          6           0        0.000000    1.429204    0.000000
     11          6           0        1.265163   -0.673113    0.000000
     12          6           0        1.250168    0.710840    0.000000
     13          6           0       -1.259010   -0.681060    0.000000
     14          6           0       -1.224617    0.750665    0.000000
     15          1           0        2.451366   -2.454990    0.000000
     16          1           0        4.615063   -1.243608    0.000000
     17          1           0        4.604165    1.267507    0.000000
     18          1           0        2.509236    2.481702    0.000000
     19          1           0        0.028991    2.510159    0.000000
     20          1           0       -2.425841    2.498084    0.000000
     21          1           0       -4.614413    1.277265    0.000000
     22          1           0       -4.658246   -1.179597    0.000000
     23          1           0       -2.524723   -2.432018    0.000000
     24          1           0       -0.039104   -2.145629    0.859585
     25          1           0       -0.039104   -2.145629   -0.859585
 ---------------------------------------------------------------------

 SCF Done:  E(RM062X) =  -539.757684616     A.U. after   15 cycles

 Excitation energies and oscillator strengths:

 Excited State   1:      Singlet-A'     2.8188 eV  439.84 nm  f=0.0295  <S**2>=0.000
      47 -> 48         0.70336
 This state for optimization and/or second-order correction.
 Total Energy, E(TD-HF/TD-DFT) =  -539.654094863
 Copying the excited state density for this state as the 1-particle RhoCI density.

 The electronic state is 1-A'.
 Alpha  occ. eigenvalues --  -10.77645 -10.73560 -10.72907 -10.72560 -10.72291
 Alpha  occ. eigenvalues --  -10.71785 -10.71419 -10.70982 -10.70969 -10.70592
 Alpha  occ. eigenvalues --  -10.70208 -10.69932 -10.69734 -10.69331  -1.16455
 Alpha  occ. eigenvalues --   -1.12474  -1.06963  -1.05776  -1.01295  -1.00190
 Alpha  occ. eigenvalues --   -0.95788  -0.91083  -0.86405  -0.85887  -0.83795
 Alpha  occ. eigenvalues --   -0.78407  -0.76029  -0.74411  -0.69760  -0.69130
 Alpha  occ. eigenvalues --   -0.68505  -0.68120  -0.68113  -0.64804  -0.64199
 Alpha  occ. eigenvalues --   -0.63047  -0.61843  -0.60018  -0.59685  -0.59165
 Alpha  occ. eigenvalues --   -0.56855  -0.55220  -0.54731  -0.52456  -0.46617
 Alpha  occ. eigenvalues --   -0.46070  -0.44494
 Alpha virt. eigenvalues --   -0.26097  -0.14700  -0.14059  -0.12756  -0.11181
 Alpha virt. eigenvalues --   -0.10090  -0.09234  -0.07987  -0.07959  -0.07474
 Alpha virt. eigenvalues --   -0.07205  -0.07142  -0.05643  -0.05583  -0.05338

 Mulliken charges:
               1
     1  C    0.078014
     2  C   -0.427926
     3  C   -0.445089
     4  C   -0.058401
     5  C    0.069248
     6  C   -0.431592
     7  C   -0.383006
     8  C    0.109730
     9  C   -0.346218
    10  C    0.084080
    11  C   -0.636349
    12  C    0.770269
    13  C   -0.637470
    14  C    0.634590
    15  H    0.235295
    16  H    0.255226
    17  H    0.245586
    18  H    0.223699
    19  H    0.190539
    20  H    0.220282
    21  H    0.252103
    22  H    0.257356
    23  H    0.239964
    24  H    0.250035
    25  H    0.250035
 Sum of Mulliken charges =   1.00000

 Dipole moment (field-independent basis, Debye):
    X=             -0.4485    Y=              0.1900    Z=              0.0000  Tot=              0.4871
 Quadrupole moment (field-independent basis, Debye-Ang):
   XX=            -31.1085   YY=            -56.2756   ZZ=            -84.1379
   XY=              0.3615   XZ=             -0.0000   YZ=             -0.0000

 Normal termination of Gaussian 16 at Wed Jul 27 13:30:51 2022.
