 Gaussian 16, Revision C.01,
 Gaussian 16:  ES64L-G16RevC.01  3-Jul-2019

 ---------------------------------------------------------------
 #n M062X/6-311++G(d,p) TD(NStates=1) EmpiricalDispersion=GD3 SP
 ---------------------------------------------------------------

 -----
 SP_14
 -----
 Symbolic Z-matrix:
 Charge =  1 Multiplicity = 1

                         Standard orientation:
 ---------------------------------------------------------------------
 Center     Atomic      Atomic             Coordinates (Angstroms)
 Number     Number       Type             X           Y           Z
 ---------------------------------------------------------------------
      1          6           0       -2.389475   -1.519075    0.000000
      2          6           0       -2.345643   -2.897180    0.000000
      3          6           0       -1.121764   -3.570813    0.000000
      4          6           0        0.044672   -2.871859    0.000000
      5          6           0        2.391407    1.459692    0.000000
      6          6           0        2.386634    2.908133    0.000000
      7          6           0        1.199389    3.601899    0.000000
      8          6           0        0.015131    2.847983    0.000000
      9          6           0       -1.263213    0.719050    0.000000
     10          6           0        1.243083   -0.705475    0.000000
     11          6           0       -1.206418   -0.800393    0.000000
     12          6           0        0.010620   -1.447968    0.000000
     13          6           0       -0.000000    1.416770    0.000000
     14          6           0        1.244871    0.697778    0.000000
     15          1           0       -3.316325   -0.959440    0.000000
     16          1           0       -3.283312   -3.432906    0.000000
     17          1           0       -1.069427   -4.649287    0.000000
     18          1           0        0.975053   -3.423632    0.000000
     19          1           0        2.172169   -1.259510    0.000000
     20          1           0        3.328476    0.914270    0.000000
     21          1           0        3.318505    3.458181    0.000000
     22          1           0        1.204719    4.682265    0.000000
     23          1           0       -0.918591    3.400934    0.000000
     24          1           0       -1.833520    1.118934    0.859585
     25          1           0       -1.833520    1.118934   -0.859585
 ---------------------------------------------------------------------

 SCF Done:  E(RM062X) =  -539.747917039     A.U. after   16 cycles

 Excitation energies and oscillator strengths:

 Excited State   1:      Singlet-A'     2.6974 eV  459.64 nm  f=0.0267  <S**2>=0.000
      47 -> 48         0.70279
 This state for optimization and/or second-order correction.
 Total Energy, E(TD-HF/TD-DFT) =  -539.648789533
 Copying the excited state density for this state as the 1-particle RhoCI density.

 The electronic state is 1-A'.
 Alpha  occ. eigenvalues --  -10.77671 -10.73444 -10.73080 -10.72528 -10.72335
 Alpha  occ. eigenvalues --  -10.71714 -10.71050 -10.71030 -10.70985 -10.70943
 Alpha  occ. eigenvalues --  -10.70212 -10.69941 -10.69727 -10.69278  -1.16530
 Alpha  occ. eigenvalues --   -1.12549  -1.06913  -1.05850  -1.01360  -1.00504
 Alpha  occ. eigenvalues --   -0.95586  -0.91053  -0.86456  -0.85859  -0.83780
 Alpha  occ. eigenvalues --   -0.78353  -0.76104  -0.74339  -0.69733  -0.69127
 Alpha  occ. eigenvalues --   -0.68549  -0.68139  -0.68120  -0.64851  -0.64435
 Alpha  occ. eigenvalues --   -0.62889  -0.61618  -0.60337  -0.59423  -0.59047
 Alpha  occ. eigenvalues --   -0.56969  -0.55090  -0.54708  -0.52441  -0.46980
 Alpha  occ. eigenvalues --   -0.46156  -0.44069
 Alpha virt. eigenvalues --   -0.26094  -0.14845  -0.13962  -0.12720  -0.11181
 Alpha virt. eigenvalues --   -0.10094  -0.09232  -0.07992  -0.07938  -0.07476
 Alpha virt. eigenvalues --   -0.07206  -0.07138  -0.05650  -0.05585  -0.05345

 Mulliken charges:
               1
     1  C    0.053491
     2  C   -0.441521
     3  C   -0.437210
     4  C   -0.104772
     5  C    0.089624
     6  C   -0.427014
     7  C   -0.369441
     8  C    0.142899
     9  C   -0.359185
    10  C    0.067398
    11  C   -0.643476
    12  C    0.859988
    13  C   -0.631327
    14  C    0.580689
    15  H    0.234976
    16  H    0.258074
    17  H    0.244887
    18  H    0.226574
    19  H    0.190507
    20  H    0.216092
    21  H    0.251880
    22  H    0.254578
    23  H    0.240099
    24  H    0.251095
    25  H    0.251095
 Sum of Mulliken charges =   1.00000

 Dipole moment (field-independent basis, Debye):
    X=              0.1536    Y=             -0.1027    Z=             -0.0000  Tot=              0.1848
 Quadrupole moment (field-independent basis, Debye-Ang):
   XX=            -51.3706   YY=            -36.0905   ZZ=            -84.1316
   XY=             10.0211   XZ=              0.0000   YZ=             -0.0000

 Normal termination of Gaussian 16 at Wed Jul 27 14:22:19 2022.
