 Gaussian 16, Revision C.01,
 Gaussian 16:  ES64L-G16RevC.01  3-Jul-2019

 ---------------------------------------------------------------
 #n M062X/6-311++G(d,p) TD(NStates=1) EmpiricalDispersion=GD3 SP
 ---------------------------------------------------------------

 ----
 SP_6
 ----
 Symbolic Z-matrix:
 Charge =  1 Multiplicity = 1

                         Standard orientation:
 ---------------------------------------------------------------------
 Center     Atomic      Atomic             Coordinates (Angstroms)
 Number     Number       Type             X           Y           Z
 ---------------------------------------------------------------------
      1          6           0       -2.369303   -1.533755    0.000000
      2          6           0       -2.317273   -2.920886    0.000000
      3          6           0       -1.084871   -3.582188    0.000000
      4          6           0        0.070708   -2.872775    0.000000
      5          6           0        2.376900    1.480487    0.000000
      6          6           0        2.356547    2.932619    0.000000
      7          6           0        1.163402    3.612893    0.000000
      8          6           0       -0.008406    2.857086    0.000000
      9          6           0       -1.272235    0.702840    0.000000
     10          6           0        1.241172   -0.709564    0.000000
     11          6           0       -1.209961   -0.803096    0.000000
     12          6           0        0.040161   -1.449698    0.000000
     13          6           0        0.000000    1.412174    0.000000
     14          6           0        1.227905    0.721693    0.000000
     15          1           0       -3.318031   -1.012142    0.000000
     16          1           0       -3.242411   -3.478656    0.000000
     17          1           0       -1.043276   -4.661452    0.000000
     18          1           0        1.020618   -3.390720    0.000000
     19          1           0        2.187685   -1.232048    0.000000
     20          1           0        3.332027    0.969714    0.000000
     21          1           0        3.293615    3.473257    0.000000
     22          1           0        1.143409    4.692177    0.000000
     23          1           0       -0.962531    3.371191    0.000000
     24          1           0       -1.849788    1.090853    0.859585
     25          1           0       -1.849788    1.090853   -0.859585
 ---------------------------------------------------------------------

 SCF Done:  E(RM062X) =  -539.751075052     A.U. after   16 cycles

 Excitation energies and oscillator strengths:

 Excited State   1:      Singlet-A'     2.6440 eV  468.93 nm  f=0.0213  <S**2>=0.000
      47 -> 48         0.70331
 This state for optimization and/or second-order correction.
 Total Energy, E(TD-HF/TD-DFT) =  -539.653910252
 Copying the excited state density for this state as the 1-particle RhoCI density.

 The electronic state is 1-A'.
 Alpha  occ. eigenvalues --  -10.77626 -10.73544 -10.72960 -10.72770 -10.72055
 Alpha  occ. eigenvalues --  -10.71791 -10.71493 -10.71145 -10.71014 -10.70266
 Alpha  occ. eigenvalues --  -10.70030 -10.69911 -10.69650 -10.69564  -1.16555
 Alpha  occ. eigenvalues --   -1.12514  -1.06892  -1.05842  -1.01352  -1.00528
 Alpha  occ. eigenvalues --   -0.95516  -0.91005  -0.86475  -0.85878  -0.83808
 Alpha  occ. eigenvalues --   -0.78306  -0.76164  -0.74335  -0.69612  -0.69330
 Alpha  occ. eigenvalues --   -0.68427  -0.68129  -0.68087  -0.65150  -0.64387
 Alpha  occ. eigenvalues --   -0.62733  -0.61593  -0.60471  -0.59252  -0.59083
 Alpha  occ. eigenvalues --   -0.56968  -0.55333  -0.54521  -0.52418  -0.47337
 Alpha  occ. eigenvalues --   -0.46138  -0.43760
 Alpha virt. eigenvalues --   -0.26096  -0.14765  -0.14020  -0.12747  -0.11186
 Alpha virt. eigenvalues --   -0.10092  -0.09248  -0.07967  -0.07926  -0.07485
 Alpha virt. eigenvalues --   -0.07209  -0.07137  -0.05650  -0.05576  -0.05345

 Mulliken charges:
               1
     1  C    0.061861
     2  C   -0.420513
     3  C   -0.435710
     4  C   -0.010407
     5  C    0.033646
     6  C   -0.439511
     7  C   -0.394313
     8  C    0.129710
     9  C   -0.337608
    10  C    0.085835
    11  C   -0.648117
    12  C    0.758582
    13  C   -0.618994
    14  C    0.616410
    15  H    0.237331
    16  H    0.260573
    17  H    0.249185
    18  H    0.226208
    19  H    0.189687
    20  H    0.217223
    21  H    0.247995
    22  H    0.252211
    23  H    0.236822
    24  H    0.250947
    25  H    0.250947
 Sum of Mulliken charges =   1.00000

 Dipole moment (field-independent basis, Debye):
    X=             -0.2139    Y=             -0.7586    Z=             -0.0000  Tot=              0.7882
 Quadrupole moment (field-independent basis, Debye-Ang):
   XX=            -51.2114   YY=            -36.1337   ZZ=            -84.1309
   XY=             10.1277   XZ=              0.0000   YZ=             -0.0000

 Normal termination of Gaussian 16 at Wed Jul 27 13:26:21 2022.
