 Gaussian 16, Revision C.01,
 Gaussian 16:  ES64L-G16RevC.01  3-Jul-2019

 ---------------------------------------------------------------
 #n M062X/6-311++G(d,p) TD(NStates=1) EmpiricalDispersion=GD3 SP
 ---------------------------------------------------------------

 -----
 SP_12
 -----
 Symbolic Z-matrix:
 Charge =  1 Multiplicity = 1

                         Standard orientation:
 ---------------------------------------------------------------------
 Center     Atomic      Atomic             Coordinates (Angstroms)
 Number     Number       Type             X           Y           Z
 ---------------------------------------------------------------------
      1          6           0       -2.382477   -1.522000    0.000000
      2          6           0       -2.334662   -2.902651    0.000000
      3          6           0       -1.107869   -3.574301    0.000000
      4          6           0        0.052341   -2.875327    0.000000
      5          6           0        2.384486    1.464111    0.000000
      6          6           0        2.376066    2.917879    0.000000
      7          6           0        1.188655    3.608237    0.000000
      8          6           0        0.008838    2.852350    0.000000
      9          6           0       -1.265322    0.715333    0.000000
     10          6           0        1.240867   -0.709665    0.000000
     11          6           0       -1.208977   -0.802146    0.000000
     12          6           0        0.018257   -1.449726    0.000000
     13          6           0       -0.000000    1.413595    0.000000
     14          6           0        1.239479    0.703308    0.000000
     15          1           0       -3.315948   -0.973792    0.000000
     16          1           0       -3.269066   -3.444344    0.000000
     17          1           0       -1.060049   -4.652964    0.000000
     18          1           0        0.988744   -3.416715    0.000000
     19          1           0        2.174944   -1.254803    0.000000
     20          1           0        3.327207    0.929286    0.000000
     21          1           0        3.310180    3.464009    0.000000
     22          1           0        1.187195    4.688297    0.000000
     23          1           0       -0.931134    3.393661    0.000000
     24          1           0       -1.835086    1.116686    0.859585
     25          1           0       -1.835086    1.116686   -0.859585
 ---------------------------------------------------------------------

 SCF Done:  E(RM062X) =  -539.747897159     A.U. after   16 cycles

 Excitation energies and oscillator strengths:

 Excited State   1:      Singlet-A'     2.6595 eV  466.19 nm  f=0.0244  <S**2>=0.000
      47 -> 48         0.70310
 This state for optimization and/or second-order correction.
 Total Energy, E(TD-HF/TD-DFT) =  -539.650161864
 Copying the excited state density for this state as the 1-particle RhoCI density.

 The electronic state is 1-A'.
 Alpha  occ. eigenvalues --  -10.77667 -10.73275 -10.73259 -10.72639 -10.72219
 Alpha  occ. eigenvalues --  -10.71510 -10.71348 -10.71150 -10.71033 -10.70664
 Alpha  occ. eigenvalues --  -10.70112 -10.69828 -10.69814 -10.69393  -1.16551
 Alpha  occ. eigenvalues --   -1.12549  -1.06889  -1.05846  -1.01381  -1.00568
 Alpha  occ. eigenvalues --   -0.95522  -0.91020  -0.86479  -0.85865  -0.83793
 Alpha  occ. eigenvalues --   -0.78323  -0.76140  -0.74325  -0.69631  -0.69222
 Alpha  occ. eigenvalues --   -0.68522  -0.68159  -0.68106  -0.64962  -0.64474
 Alpha  occ. eigenvalues --   -0.62803  -0.61576  -0.60428  -0.59324  -0.59010
 Alpha  occ. eigenvalues --   -0.57009  -0.55175  -0.54647  -0.52424  -0.47183
 Alpha  occ. eigenvalues --   -0.46153  -0.43885
 Alpha virt. eigenvalues --   -0.26091  -0.14837  -0.13977  -0.12726  -0.11183
 Alpha virt. eigenvalues --   -0.10093  -0.09236  -0.07983  -0.07933  -0.07480
 Alpha virt. eigenvalues --   -0.07207  -0.07138  -0.05651  -0.05582  -0.05344

 Mulliken charges:
               1
     1  C    0.054407
     2  C   -0.436998
     3  C   -0.436429
     4  C   -0.075259
     5  C    0.074747
     6  C   -0.430696
     7  C   -0.376505
     8  C    0.142331
     9  C   -0.349692
    10  C    0.074229
    11  C   -0.648127
    12  C    0.829505
    13  C   -0.625532
    14  C    0.584707
    15  H    0.235558
    16  H    0.259229
    17  H    0.246205
    18  H    0.226743
    19  H    0.190139
    20  H    0.215942
    21  H    0.250543
    22  H    0.253496
    23  H    0.238907
    24  H    0.251275
    25  H    0.251275
 Sum of Mulliken charges =   1.00000

 Dipole moment (field-independent basis, Debye):
    X=              0.0037    Y=             -0.3653    Z=             -0.0000  Tot=              0.3653
 Quadrupole moment (field-independent basis, Debye-Ang):
   XX=            -51.3706   YY=            -36.0629   ZZ=            -84.1314
   XY=             10.0182   XZ=              0.0000   YZ=             -0.0000

 Normal termination of Gaussian 16 at Wed Jul 27 14:09:15 2022.
