 Gaussian 16, Revision C.01,
 Gaussian 16:  ES64L-G16RevC.01  3-Jul-2019

 ---------------------------------------------------------------
 #n M062X/6-311++G(d,p) TD(NStates=1) EmpiricalDispersion=GD3 SP
 ---------------------------------------------------------------

 -----
 SP_14
 -----
 Symbolic Z-matrix:
 Charge =  1 Multiplicity = 1

                         Standard orientation:
 ---------------------------------------------------------------------
 Center     Atomic      Atomic             Coordinates (Angstroms)
 Number     Number       Type             X           Y           Z
 ---------------------------------------------------------------------
      1          6           0       -2.386852   -1.518065    0.000000
      2          6           0       -2.340419   -2.896557    0.000000
      3          6           0       -1.115511   -3.571643    0.000000
      4          6           0        0.046220   -2.876152    0.000000
      5          6           0        2.386986    1.458652    0.000000
      6          6           0        2.382543    2.912944    0.000000
      7          6           0        1.197060    3.606650    0.000000
      8          6           0        0.014563    2.850749    0.000000
      9          6           0       -1.262995    0.719480    0.000000
     10          6           0        1.240779   -0.709701    0.000000
     11          6           0       -1.208655   -0.801843    0.000000
     12          6           0        0.010960   -1.449684    0.000000
     13          6           0        0.000000    1.414083    0.000000
     14          6           0        1.243292    0.697156    0.000000
     15          1           0       -3.315169   -0.961036    0.000000
     16          1           0       -3.277871   -3.432872    0.000000
     17          1           0       -1.065611   -4.650134    0.000000
     18          1           0        0.978062   -3.425316    0.000000
     19          1           0        2.170655   -1.262356    0.000000
     20          1           0        3.325511    0.915844    0.000000
     21          1           0        3.315696    3.460922    0.000000
     22          1           0        1.201776    4.686923    0.000000
     23          1           0       -0.920621    3.401089    0.000000
     24          1           0       -1.830130    1.125259    0.859585
     25          1           0       -1.830130    1.125259   -0.859585
 ---------------------------------------------------------------------

 SCF Done:  E(RM062X) =  -539.746182893     A.U. after   16 cycles

 Excitation energies and oscillator strengths:

 Excited State   1:      Singlet-A'     2.6637 eV  465.46 nm  f=0.0255  <S**2>=0.000
      47 -> 48         0.70297
 This state for optimization and/or second-order correction.
 Total Energy, E(TD-HF/TD-DFT) =  -539.648294328
 Copying the excited state density for this state as the 1-particle RhoCI density.

 The electronic state is 1-A'.
 Alpha  occ. eigenvalues --  -10.77672 -10.73377 -10.73160 -10.72590 -10.72271
 Alpha  occ. eigenvalues --  -10.71634 -10.71201 -10.71039 -10.71038 -10.70799
 Alpha  occ. eigenvalues --  -10.70179 -10.69898 -10.69760 -10.69308  -1.16553
 Alpha  occ. eigenvalues --   -1.12561  -1.06895  -1.05863  -1.01381  -1.00581
 Alpha  occ. eigenvalues --   -0.95527  -0.91034  -0.86474  -0.85856  -0.83782
 Alpha  occ. eigenvalues --   -0.78330  -0.76133  -0.74321  -0.69693  -0.69166
 Alpha  occ. eigenvalues --   -0.68540  -0.68149  -0.68115  -0.64914  -0.64482
 Alpha  occ. eigenvalues --   -0.62823  -0.61565  -0.60416  -0.59350  -0.59014
 Alpha  occ. eigenvalues --   -0.57003  -0.55115  -0.54665  -0.52432  -0.47132
 Alpha  occ. eigenvalues --   -0.46161  -0.43924
 Alpha virt. eigenvalues --   -0.26092  -0.14862  -0.13957  -0.12715  -0.11182
 Alpha virt. eigenvalues --   -0.10095  -0.09234  -0.07989  -0.07931  -0.07479
 Alpha virt. eigenvalues --   -0.07207  -0.07137  -0.05652  -0.05584  -0.05346

 Mulliken charges:
               1
     1  C    0.051377
     2  C   -0.441711
     3  C   -0.435852
     4  C   -0.100226
     5  C    0.087137
     6  C   -0.427603
     7  C   -0.370440
     8  C    0.146731
     9  C   -0.357296
    10  C    0.067539
    11  C   -0.645658
    12  C    0.859185
    13  C   -0.628332
    14  C    0.575541
    15  H    0.235104
    16  H    0.258778
    17  H    0.245217
    18  H    0.226916
    19  H    0.190338
    20  H    0.215546
    21  H    0.251388
    22  H    0.253918
    23  H    0.239686
    24  H    0.251358
    25  H    0.251358
 Sum of Mulliken charges =   1.00000

 Dipole moment (field-independent basis, Debye):
    X=              0.0773    Y=             -0.2346    Z=             -0.0000  Tot=              0.2470
 Quadrupole moment (field-independent basis, Debye-Ang):
   XX=            -51.4256   YY=            -36.0349   ZZ=            -84.1303
   XY=              9.9861   XZ=              0.0000   YZ=              0.0000

 Normal termination of Gaussian 16 at Wed Jul 27 14:23:47 2022.
