 Gaussian 16, Revision C.01,
 Gaussian 16:  ES64L-G16RevC.01  3-Jul-2019

 ---------------------------------------------------------------
 #n M062X/6-311++G(d,p) TD(NStates=1) EmpiricalDispersion=GD3 SP
 ---------------------------------------------------------------

 -----
 SP_16
 -----
 Symbolic Z-matrix:
 Charge =  1 Multiplicity = 1

                         Standard orientation:
 ---------------------------------------------------------------------
 Center     Atomic      Atomic             Coordinates (Angstroms)
 Number     Number       Type             X           Y           Z
 ---------------------------------------------------------------------
      1          6           0       -2.404301   -1.519228    0.000000
      2          6           0       -2.372160   -2.893573    0.000000
      3          6           0       -1.154212   -3.564735    0.000000
      4          6           0        0.032609   -2.855474    0.000000
      5          6           0        2.411545    1.458408    0.000000
      6          6           0        2.409209    2.883975    0.000000
      7          6           0        1.216814    3.581308    0.000000
      8          6           0        0.022899    2.835313    0.000000
      9          6           0       -1.261794    0.721414    0.000000
     10          6           0        1.252375   -0.688616    0.000000
     11          6           0       -1.197091   -0.794426    0.000000
     12          6           0        0.002084   -1.441022    0.000000
     13          6           0       -0.000000    1.428031    0.000000
     14          6           0        1.254954    0.694121    0.000000
     15          1           0       -3.320038   -0.940465    0.000000
     16          1           0       -3.313673   -3.421594    0.000000
     17          1           0       -1.089991   -4.643068    0.000000
     18          1           0        0.952499   -3.425345    0.000000
     19          1           0        2.174052   -1.255597    0.000000
     20          1           0        3.338505    0.894660    0.000000
     21          1           0        3.335047    3.444246    0.000000
     22          1           0        1.230724    4.662213    0.000000
     23          1           0       -0.900092    3.407621    0.000000
     24          1           0       -1.842310    1.102182    0.859585
     25          1           0       -1.842310    1.102182   -0.859585
 ---------------------------------------------------------------------

 SCF Done:  E(RM062X) =  -539.749734320     A.U. after   15 cycles

 Excitation energies and oscillator strengths:

 Excited State   1:      Singlet-A'     2.7977 eV  443.17 nm  f=0.0319  <S**2>=0.000
      47 -> 48         0.70080
 This state for optimization and/or second-order correction.
 Total Energy, E(TD-HF/TD-DFT) =  -539.646920970
 Copying the excited state density for this state as the 1-particle RhoCI density.

 The electronic state is 1-A'.
 Alpha  occ. eigenvalues --  -10.77609 -10.73799 -10.72646 -10.72611 -10.72201
 Alpha  occ. eigenvalues --  -10.72142 -10.71677 -10.70998 -10.70648 -10.70408
 Alpha  occ. eigenvalues --  -10.70324 -10.70196 -10.69529 -10.69070  -1.16492
 Alpha  occ. eigenvalues --   -1.12512  -1.07002  -1.05892  -1.01266  -1.00251
 Alpha  occ. eigenvalues --   -0.95778  -0.91147  -0.86380  -0.85846  -0.83741
 Alpha  occ. eigenvalues --   -0.78421  -0.76035  -0.74385  -0.70030  -0.69033
 Alpha  occ. eigenvalues --   -0.68534  -0.68144  -0.67955  -0.64884  -0.64076
 Alpha  occ. eigenvalues --   -0.63014  -0.61754  -0.60078  -0.59686  -0.59288
 Alpha  occ. eigenvalues --   -0.56794  -0.55142  -0.54538  -0.52497  -0.46590
 Alpha  occ. eigenvalues --   -0.46125  -0.44462
 Alpha virt. eigenvalues --   -0.26118  -0.14795  -0.13954  -0.12709  -0.11185
 Alpha virt. eigenvalues --   -0.10099  -0.09241  -0.07999  -0.07931  -0.07471
 Alpha virt. eigenvalues --   -0.07208  -0.07131  -0.05645  -0.05587  -0.05353

 Mulliken charges:
               1
     1  C    0.056203
     2  C   -0.442153
     3  C   -0.442041
     4  C   -0.150486
     5  C    0.107834
     6  C   -0.421135
     7  C   -0.358599
     8  C    0.131416
     9  C   -0.382340
    10  C    0.053038
    11  C   -0.620910
    12  C    0.902110
    13  C   -0.645596
    14  C    0.590900
    15  H    0.234348
    16  H    0.254852
    17  H    0.242588
    18  H    0.225601
    19  H    0.191073
    20  H    0.217982
    21  H    0.254709
    22  H    0.257676
    23  H    0.242647
    24  H    0.250142
    25  H    0.250142
 Sum of Mulliken charges =   1.00000

 Dipole moment (field-independent basis, Debye):
    X=              0.5269    Y=              0.5563    Z=              0.0000  Tot=              0.7663
 Quadrupole moment (field-independent basis, Debye-Ang):
   XX=            -51.1955   YY=            -36.2298   ZZ=            -84.1278
   XY=             10.1658   XZ=              0.0000   YZ=             -0.0000

 Normal termination of Gaussian 16 at Wed Jul 27 14:31:14 2022.
