 Gaussian 16, Revision C.01,
 Gaussian 16:  ES64L-G16RevC.01  3-Jul-2019

 ---------------------------------------------------------------
 #n M062X/6-311++G(d,p) TD(NStates=1) EmpiricalDispersion=GD3 SP
 ---------------------------------------------------------------

 -----
 SP_14
 -----
 Symbolic Z-matrix:
 Charge =  1 Multiplicity = 1

                         Standard orientation:
 ---------------------------------------------------------------------
 Center     Atomic      Atomic             Coordinates (Angstroms)
 Number     Number       Type             X           Y           Z
 ---------------------------------------------------------------------
      1          6           0       -2.394716   -1.521106    0.000000
      2          6           0       -2.356075   -2.898428    0.000000
      3          6           0       -1.134238   -3.569140    0.000000
      4          6           0        0.041618   -2.863271    0.000000
      5          6           0        2.400247    1.461774    0.000000
      6          6           0        2.394776    2.898518    0.000000
      7          6           0        1.203999    3.592402    0.000000
      8          6           0        0.016231    2.842454    0.000000
      9          6           0       -1.263658    0.718182    0.000000
     10          6           0        1.247716   -0.697024    0.000000
     11          6           0       -1.201933   -0.797514    0.000000
     12          6           0        0.009961   -1.444537    0.000000
     13          6           0        0.000000    1.422146    0.000000
     14          6           0        1.248028    0.699027    0.000000
     15          1           0       -3.318627   -0.956272    0.000000
     16          1           0       -3.294171   -3.432984    0.000000
     17          1           0       -1.077019   -4.647592    0.000000
     18          1           0        0.969070   -3.420247    0.000000
     19          1           0        2.175223   -1.253810    0.000000
     20          1           0        3.334397    0.911139    0.000000
     21          1           0        3.324088    3.452719    0.000000
     22          1           0        1.210548    4.672952    0.000000
     23          1           0       -0.914560    3.400613    0.000000
     24          1           0       -1.840341    1.106286    0.859585
     25          1           0       -1.840341    1.106286   -0.859585
 ---------------------------------------------------------------------

 SCF Done:  E(RM062X) =  -539.750539768     A.U. after   15 cycles

 Excitation energies and oscillator strengths:

 Excited State   1:      Singlet-A'     2.7568 eV  449.74 nm  f=0.0293  <S**2>=0.000
      47 -> 48         0.70225
 This state for optimization and/or second-order correction.
 Total Energy, E(TD-HF/TD-DFT) =  -539.649229652
 Copying the excited state density for this state as the 1-particle RhoCI density.

 The electronic state is 1-A'.
 Alpha  occ. eigenvalues --  -10.77658 -10.73577 -10.72917 -10.72457 -10.72397
 Alpha  occ. eigenvalues --  -10.71869 -10.71237 -10.71012 -10.70874 -10.70753
 Alpha  occ. eigenvalues --  -10.70277 -10.70027 -10.69662 -10.69215  -1.16498
 Alpha  occ. eigenvalues --   -1.12526  -1.06949  -1.05841  -1.01320  -1.00365
 Alpha  occ. eigenvalues --   -0.95691  -0.91089  -0.86422  -0.85861  -0.83773
 Alpha  occ. eigenvalues --   -0.78389  -0.76060  -0.74369  -0.69826  -0.69071
 Alpha  occ. eigenvalues --   -0.68555  -0.68128  -0.68095  -0.64809  -0.64290
 Alpha  occ. eigenvalues --   -0.62990  -0.61707  -0.60188  -0.59562  -0.59129
 Alpha  occ. eigenvalues --   -0.56898  -0.55087  -0.54720  -0.52460  -0.46734
 Alpha  occ. eigenvalues --   -0.46141  -0.44313
 Alpha virt. eigenvalues --   -0.26100  -0.14811  -0.13973  -0.12724  -0.11181
 Alpha virt. eigenvalues --   -0.10094  -0.09232  -0.07996  -0.07944  -0.07473
 Alpha virt. eigenvalues --   -0.07206  -0.07138  -0.05647  -0.05586  -0.05345

 Mulliken charges:
               1
     1  C    0.057608
     2  C   -0.440902
     3  C   -0.440009
     4  C   -0.113910
     5  C    0.094240
     6  C   -0.425753
     7  C   -0.367428
     8  C    0.135293
     9  C   -0.363715
    10  C    0.066332
    11  C   -0.637931
    12  C    0.861920
    13  C   -0.636794
    14  C    0.590632
    15  H    0.234744
    16  H    0.256673
    17  H    0.244213
    18  H    0.225914
    19  H    0.190752
    20  H    0.217191
    21  H    0.252861
    22  H    0.255912
    23  H    0.240927
    24  H    0.250616
    25  H    0.250616
 Sum of Mulliken charges =   1.00000

 Dipole moment (field-independent basis, Debye):
    X=              0.3046    Y=              0.1621    Z=             -0.0000  Tot=              0.3451
 Quadrupole moment (field-independent basis, Debye-Ang):
   XX=            -51.2586   YY=            -36.1912   ZZ=            -84.1326
   XY=             10.0981   XZ=              0.0000   YZ=             -0.0000

 Normal termination of Gaussian 16 at Wed Jul 27 14:19:26 2022.
