 Gaussian 16, Revision C.01,
 Gaussian 16:  ES64L-G16RevC.01  3-Jul-2019

 ---------------------------------------------------------------
 #n M062X/6-311++G(d,p) TD(NStates=1) EmpiricalDispersion=GD3 SP
 ---------------------------------------------------------------

 ----
 SP_0
 ----
 Symbolic Z-matrix:
 Charge =  1 Multiplicity = 1

                         Standard orientation:
 ---------------------------------------------------------------------
 Center     Atomic      Atomic             Coordinates (Angstroms)
 Number     Number       Type             X           Y           Z
 ---------------------------------------------------------------------
      1          6           0       -2.361353   -1.547401    0.000000
      2          6           0       -2.310322   -2.940307    0.000000
      3          6           0       -1.074517   -3.588402    0.000000
      4          6           0        0.085693   -2.861569    0.000000
      5          6           0        2.378086    1.498919    0.000000
      6          6           0        2.345397    2.937622    0.000000
      7          6           0        1.143097    3.607892    0.000000
      8          6           0       -0.024345    2.856201    0.000000
      9          6           0       -1.279443    0.689487    0.000000
     10          6           0        1.245951   -0.701014    0.000000
     11          6           0       -1.206569   -0.801052    0.000000
     12          6           0        0.061267   -1.446066    0.000000
     13          6           0        0.000000    1.416158    0.000000
     14          6           0        1.219348    0.741213    0.000000
     15          1           0       -3.322214   -1.047223    0.000000
     16          1           0       -3.226531   -3.512861    0.000000
     17          1           0       -1.034317   -4.668249    0.000000
     18          1           0        1.046029   -3.361254    0.000000
     19          1           0        2.203134   -1.203561    0.000000
     20          1           0        3.342541    1.006997    0.000000
     21          1           0        3.282894    3.476866    0.000000
     22          1           0        1.105855    4.686446    0.000000
     23          1           0       -0.989503    3.348281    0.000000
     24          1           0       -1.870815    1.052238    0.859585
     25          1           0       -1.870815    1.052238   -0.859585
 ---------------------------------------------------------------------

 SCF Done:  E(RM062X) =  -539.755216319     A.U. after   15 cycles

 Excitation energies and oscillator strengths:

 Excited State   1:      Singlet-A'     2.6965 eV  459.79 nm  f=0.0210  <S**2>=0.000
      47 -> 48         0.70348
 This state for optimization and/or second-order correction.
 Total Energy, E(TD-HF/TD-DFT) =  -539.656119979
 Copying the excited state density for this state as the 1-particle RhoCI density.

 The electronic state is 1-A'.
 Alpha  occ. eigenvalues --  -10.77598 -10.73674 -10.72786 -10.72781 -10.72025
 Alpha  occ. eigenvalues --  -10.71921 -10.71737 -10.70987 -10.70945 -10.70167
 Alpha  occ. eigenvalues --  -10.70147 -10.69844 -10.69775 -10.69400  -1.16517
 Alpha  occ. eigenvalues --   -1.12476  -1.06934  -1.05825  -1.01299  -1.00360
 Alpha  occ. eigenvalues --   -0.95629  -0.91042  -0.86436  -0.85886  -0.83804
 Alpha  occ. eigenvalues --   -0.78342  -0.76122  -0.74372  -0.69758  -0.69260
 Alpha  occ. eigenvalues --   -0.68375  -0.68090  -0.68089  -0.65123  -0.64269
 Alpha  occ. eigenvalues --   -0.62789  -0.61705  -0.60364  -0.59339  -0.59194
 Alpha  occ. eigenvalues --   -0.56872  -0.55389  -0.54493  -0.52438  -0.47160
 Alpha  occ. eigenvalues --   -0.46116  -0.43942
 Alpha virt. eigenvalues --   -0.26104  -0.14686  -0.14062  -0.12759  -0.11187
 Alpha virt. eigenvalues --   -0.10091  -0.09252  -0.07966  -0.07931  -0.07483
 Alpha virt. eigenvalues --   -0.07209  -0.07136  -0.05646  -0.05575  -0.05345

 Mulliken charges:
               1
     1  C    0.074800
     2  C   -0.403409
     3  C   -0.434169
     4  C    0.034549
     5  C   -0.007213
     6  C   -0.445792
     7  C   -0.409982
     8  C    0.111556
     9  C   -0.337731
    10  C    0.089449
    11  C   -0.644161
    12  C    0.704632
    13  C   -0.620671
    14  C    0.668418
    15  H    0.239022
    16  H    0.260487
    17  H    0.251374
    18  H    0.224727
    19  H    0.189829
    20  H    0.219453
    21  H    0.246309
    22  H    0.252231
    23  H    0.235689
    24  H    0.250302
    25  H    0.250302
 Sum of Mulliken charges =   1.00000

 Dipole moment (field-independent basis, Debye):
    X=             -0.2760    Y=             -0.8896    Z=             -0.0000  Tot=              0.9314
 Quadrupole moment (field-independent basis, Debye-Ang):
   XX=            -50.9605   YY=            -36.3433   ZZ=            -84.1320
   XY=             10.2980   XZ=             -0.0000   YZ=              0.0000

 Normal termination of Gaussian 16 at Wed Jul 27 12:40:10 2022.
