 Gaussian 16, Revision C.01,
 Gaussian 16:  ES64L-G16RevC.01  3-Jul-2019

 ---------------------------------------------------------------
 #n M062X/6-311++G(d,p) TD(NStates=1) EmpiricalDispersion=GD3 SP
 ---------------------------------------------------------------

 -----
 SP_16
 -----
 Symbolic Z-matrix:
 Charge =  1 Multiplicity = 1

                         Standard orientation:
 ---------------------------------------------------------------------
 Center     Atomic      Atomic             Coordinates (Angstroms)
 Number     Number       Type             X           Y           Z
 ---------------------------------------------------------------------
      1          6           0        2.487177   -1.385053    0.000000
      2          6           0        3.679195   -0.701188    0.000000
      3          6           0        3.684373    0.687843    0.000000
      4          6           0        2.488124    1.392625    0.000000
      5          6           0       -2.438126    1.422109    0.000000
      6          6           0       -3.683183    0.739867    0.000000
      7          6           0       -3.723594   -0.642438    0.000000
      8          6           0       -2.497890   -1.335826    0.000000
      9          6           0       -0.028614   -1.453167    0.000000
     10          6           0        0.000000    1.429250    0.000000
     11          6           0        1.268335   -0.669204    0.000000
     12          6           0        1.262707    0.690775    0.000000
     13          6           0       -1.256030   -0.685098    0.000000
     14          6           0       -1.211605    0.770423    0.000000
     15          1           0        2.414610   -2.466045    0.000000
     16          1           0        4.593178   -1.275351    0.000000
     17          1           0        4.599121    1.262741    0.000000
     18          1           0        2.550895    2.473013    0.000000
     19          1           0        0.057979    2.509838    0.000000
     20          1           0       -2.384112    2.505778    0.000000
     21          1           0       -4.619616    1.282255    0.000000
     22          1           0       -4.679541   -1.147333    0.000000
     23          1           0       -2.561320   -2.420102    0.000000
     24          1           0       -0.078205   -2.145156    0.859585
     25          1           0       -0.078205   -2.145156   -0.859585
 ---------------------------------------------------------------------

 SCF Done:  E(RM062X) =  -539.750012042     A.U. after   15 cycles

 Excitation energies and oscillator strengths:

 Excited State   1:      Singlet-A'     2.8071 eV  441.68 nm  f=0.0317  <S**2>=0.000
      47 -> 48         0.70063
 This state for optimization and/or second-order correction.
 Total Energy, E(TD-HF/TD-DFT) =  -539.646853778
 Copying the excited state density for this state as the 1-particle RhoCI density.

 The electronic state is 1-A'.
 Alpha  occ. eigenvalues --  -10.77585 -10.73861 -10.72663 -10.72562 -10.72213
 Alpha  occ. eigenvalues --  -10.72127 -10.71830 -10.70990 -10.70589 -10.70440
 Alpha  occ. eigenvalues --  -10.70237 -10.70183 -10.69497 -10.69038  -1.16491
 Alpha  occ. eigenvalues --   -1.12501  -1.07020  -1.05906  -1.01247  -1.00204
 Alpha  occ. eigenvalues --   -0.95805  -0.91163  -0.86367  -0.85843  -0.83733
 Alpha  occ. eigenvalues --   -0.78428  -0.76032  -0.74391  -0.70090  -0.69041
 Alpha  occ. eigenvalues --   -0.68509  -0.68146  -0.67906  -0.64926  -0.64021
 Alpha  occ. eigenvalues --   -0.62991  -0.61777  -0.60063  -0.59701  -0.59348
 Alpha  occ. eigenvalues --   -0.56758  -0.55184  -0.54460  -0.52507  -0.46592
 Alpha  occ. eigenvalues --   -0.46112  -0.44472
 Alpha virt. eigenvalues --   -0.26125  -0.14776  -0.13957  -0.12707  -0.11188
 Alpha virt. eigenvalues --   -0.10100  -0.09246  -0.07997  -0.07926  -0.07471
 Alpha virt. eigenvalues --   -0.07209  -0.07129  -0.05644  -0.05587  -0.05356

 Mulliken charges:
               1
     1  C    0.057746
     2  C   -0.440944
     3  C   -0.443709
     4  C   -0.155114
     5  C    0.108976
     6  C   -0.420236
     7  C   -0.357483
     8  C    0.127589
     9  C   -0.386313
    10  C    0.050677
    11  C   -0.614912
    12  C    0.904490
    13  C   -0.647562
    14  C    0.594595
    15  H    0.234312
    16  H    0.254172
    17  H    0.242248
    18  H    0.225342
    19  H    0.191091
    20  H    0.218540
    21  H    0.255195
    22  H    0.258355
    23  H    0.243072
    24  H    0.249936
    25  H    0.249936
 Sum of Mulliken charges =   1.00000

 Dipole moment (field-independent basis, Debye):
    X=             -0.8918    Y=              0.1971    Z=             -0.0000  Tot=              0.9133
 Quadrupole moment (field-independent basis, Debye-Ang):
   XX=            -31.0861   YY=            -56.3140   ZZ=            -84.1261
   XY=              0.7218   XZ=             -0.0000   YZ=              0.0000

 Normal termination of Gaussian 16 at Wed Jul 27 14:29:49 2022.
