 Gaussian 16, Revision C.01,
 Gaussian 16:  ES64L-G16RevC.01  3-Jul-2019

 ---------------------------------------------------------------
 #n M062X/6-311++G(d,p) TD(NStates=1) EmpiricalDispersion=GD3 SP
 ---------------------------------------------------------------

 -----
 SP_14
 -----
 Symbolic Z-matrix:
 Charge =  1 Multiplicity = 1

                         Standard orientation:
 ---------------------------------------------------------------------
 Center     Atomic      Atomic             Coordinates (Angstroms)
 Number     Number       Type             X           Y           Z
 ---------------------------------------------------------------------
      1          6           0        2.485974   -1.389640    0.000000
      2          6           0        3.682479   -0.710099    0.000000
      3          6           0        3.687705    0.677348    0.000000
      4          6           0        2.486225    1.385698    0.000000
      5          6           0       -2.439910    1.429036    0.000000
      6          6           0       -3.679661    0.750311    0.000000
      7          6           0       -3.720143   -0.633542    0.000000
      8          6           0       -2.498995   -1.331246    0.000000
      9          6           0       -0.028346   -1.453143    0.000000
     10          6           0        0.000000    1.429278    0.000000
     11          6           0        1.264096   -0.672404    0.000000
     12          6           0        1.260325    0.691792    0.000000
     13          6           0       -1.260276   -0.681853    0.000000
     14          6           0       -1.213905    0.769389    0.000000
     15          1           0        2.416929   -2.470754    0.000000
     16          1           0        4.597396   -1.282638    0.000000
     17          1           0        4.604343    1.249480    0.000000
     18          1           0        2.546672    2.466213    0.000000
     19          1           0        0.054653    2.509813    0.000000
     20          1           0       -2.388219    2.512448    0.000000
     21          1           0       -4.614241    1.295486    0.000000
     22          1           0       -4.675096   -1.140024    0.000000
     23          1           0       -2.558903   -2.415261    0.000000
     24          1           0       -0.068465   -2.145157    0.859585
     25          1           0       -0.068465   -2.145157   -0.859585
 ---------------------------------------------------------------------

 SCF Done:  E(RM062X) =  -539.752425486     A.U. after   15 cycles

 Excitation energies and oscillator strengths:

 Excited State   1:      Singlet-A'     2.8117 eV  440.95 nm  f=0.0303  <S**2>=0.000
      47 -> 48         0.70160
 This state for optimization and/or second-order correction.
 Total Energy, E(TD-HF/TD-DFT) =  -539.649096491
 Copying the excited state density for this state as the 1-particle RhoCI density.

 The electronic state is 1-A'.
 Alpha  occ. eigenvalues --  -10.77586 -10.73835 -10.72678 -10.72586 -10.72157
 Alpha  occ. eigenvalues --  -10.72116 -10.71843 -10.70983 -10.70636 -10.70406
 Alpha  occ. eigenvalues --  -10.70191 -10.70180 -10.69532 -10.69086  -1.16482
 Alpha  occ. eigenvalues --   -1.12486  -1.07014  -1.05879  -1.01248  -1.00176
 Alpha  occ. eigenvalues --   -0.95812  -0.91149  -0.86370  -0.85855  -0.83746
 Alpha  occ. eigenvalues --   -0.78424  -0.76032  -0.74400  -0.70049  -0.69061
 Alpha  occ. eigenvalues --   -0.68486  -0.68136  -0.67936  -0.64933  -0.64038
 Alpha  occ. eigenvalues --   -0.62981  -0.61806  -0.60060  -0.59684  -0.59338
 Alpha  occ. eigenvalues --   -0.56760  -0.55232  -0.54479  -0.52499  -0.46622
 Alpha  occ. eigenvalues --   -0.46094  -0.44462
 Alpha virt. eigenvalues --   -0.26122  -0.14741  -0.13989  -0.12720  -0.11188
 Alpha virt. eigenvalues --   -0.10098  -0.09247  -0.07992  -0.07931  -0.07472
 Alpha virt. eigenvalues --   -0.07209  -0.07131  -0.05643  -0.05585  -0.05353

 Mulliken charges:
               1
     1  C    0.065296
     2  C   -0.438353
     3  C   -0.446046
     4  C   -0.132014
     5  C    0.101408
     6  C   -0.422724
     7  C   -0.363335
     8  C    0.120368
     9  C   -0.375954
    10  C    0.060516
    11  C   -0.620515
    12  C    0.867226
    13  C   -0.645577
    14  C    0.607896
    15  H    0.234402
    16  H    0.253916
    17  H    0.242817
    18  H    0.224722
    19  H    0.190885
    20  H    0.219387
    21  H    0.254795
    22  H    0.258624
    23  H    0.242572
    24  H    0.249844
    25  H    0.249844
 Sum of Mulliken charges =   1.00000

 Dipole moment (field-independent basis, Debye):
    X=             -0.8947    Y=              0.1974    Z=             -0.0000  Tot=              0.9162
 Quadrupole moment (field-independent basis, Debye-Ang):
   XX=            -31.0691   YY=            -56.3073   ZZ=            -84.1283
   XY=              0.5186   XZ=              0.0000   YZ=              0.0000

 Normal termination of Gaussian 16 at Wed Jul 27 14:13:31 2022.
