 Gaussian 16, Revision C.01,
 Gaussian 16:  ES64L-G16RevC.01  3-Jul-2019

 ---------------------------------------------------------------
 #n M062X/6-311++G(d,p) TD(NStates=1) EmpiricalDispersion=GD3 SP
 ---------------------------------------------------------------

 ----
 SP_2
 ----
 Symbolic Z-matrix:
 Charge =  1 Multiplicity = 1

                         Standard orientation:
 ---------------------------------------------------------------------
 Center     Atomic      Atomic             Coordinates (Angstroms)
 Number     Number       Type             X           Y           Z
 ---------------------------------------------------------------------
      1          6           0       -2.376325   -1.547519    0.000000
      2          6           0       -2.337282   -2.936775    0.000000
      3          6           0       -1.107485   -3.582645    0.000000
      4          6           0        0.073097   -2.845366    0.000000
      5          6           0        2.398438    1.497605    0.000000
      6          6           0        2.368646    2.913509    0.000000
      7          6           0        1.161194    3.587438    0.000000
      8          6           0       -0.016009    2.843634    0.000000
      9          6           0       -1.278032    0.692053    0.000000
     10          6           0        1.254839   -0.684130    0.000000
     11          6           0       -1.197339   -0.794743    0.000000
     12          6           0        0.052465   -1.439403    0.000000
     13          6           0        0.000000    1.427310    0.000000
     14          6           0        1.229700    0.737636    0.000000
     15          1           0       -3.326527   -1.027804    0.000000
     16          1           0       -3.257634   -3.501641    0.000000
     17          1           0       -1.055544   -4.662037    0.000000
     18          1           0        1.023345   -3.363528    0.000000
     19          1           0        2.204935   -1.199946    0.000000
     20          1           0        3.353198    0.986995    0.000000
     21          1           0        3.299898    3.462704    0.000000
     22          1           0        1.132643    4.666797    0.000000
     23          1           0       -0.970903    3.355462    0.000000
     24          1           0       -1.879432    1.035688    0.859585
     25          1           0       -1.879432    1.035688   -0.859585
 ---------------------------------------------------------------------

 SCF Done:  E(RM062X) =  -539.759597630     A.U. after   15 cycles

 Excitation energies and oscillator strengths:

 Excited State   1:      Singlet-A'     2.8080 eV  441.53 nm  f=0.0278  <S**2>=0.000
      47 -> 48         0.70401
 This state for optimization and/or second-order correction.
 Total Energy, E(TD-HF/TD-DFT) =  -539.656404507
 Copying the excited state density for this state as the 1-particle RhoCI density.

 The electronic state is 1-A'.
 Alpha  occ. eigenvalues --  -10.77665 -10.73290 -10.73193 -10.72512 -10.72357
 Alpha  occ. eigenvalues --  -10.71380 -10.71352 -10.71162 -10.70981 -10.70850
 Alpha  occ. eigenvalues --  -10.69974 -10.69970 -10.69638 -10.69618  -1.16449
 Alpha  occ. eigenvalues --   -1.12470  -1.06941  -1.05737  -1.01316  -1.00210
 Alpha  occ. eigenvalues --   -0.95763  -0.91053  -0.86422  -0.85900  -0.83816
 Alpha  occ. eigenvalues --   -0.78394  -0.76036  -0.74412  -0.69562  -0.69251
 Alpha  occ. eigenvalues --   -0.68502  -0.68190  -0.68101  -0.64762  -0.64299
 Alpha  occ. eigenvalues --   -0.63040  -0.61848  -0.60058  -0.59627  -0.59090
 Alpha  occ. eigenvalues --   -0.56903  -0.55223  -0.54818  -0.52436  -0.46673
 Alpha  occ. eigenvalues --   -0.46070  -0.44443
 Alpha virt. eigenvalues --   -0.26088  -0.14678  -0.14090  -0.12772  -0.11179
 Alpha virt. eigenvalues --   -0.10086  -0.09231  -0.07982  -0.07967  -0.07476
 Alpha virt. eigenvalues --   -0.07203  -0.07144  -0.05643  -0.05581  -0.05333

 Mulliken charges:
               1
     1  C    0.083702
     2  C   -0.411674
     3  C   -0.439853
     4  C    0.004848
     5  C    0.024001
     6  C   -0.439761
     7  C   -0.402151
     8  C    0.102335
     9  C   -0.334263
    10  C    0.092662
    11  C   -0.640384
    12  C    0.708919
    13  C   -0.633488
    14  C    0.665684
    15  H    0.237175
    16  H    0.257249
    17  H    0.248795
    18  H    0.223194
    19  H    0.190360
    20  H    0.220776
    21  H    0.248943
    22  H    0.255368
    23  H    0.237376
    24  H    0.250094
    25  H    0.250094
 Sum of Mulliken charges =   1.00000

 Dipole moment (field-independent basis, Debye):
    X=              0.0910    Y=             -0.2253    Z=             -0.0000  Tot=              0.2430
 Quadrupole moment (field-independent basis, Debye-Ang):
   XX=            -50.7962   YY=            -36.5826   ZZ=            -84.1411
   XY=             10.3756   XZ=             -0.0000   YZ=              0.0000

 Normal termination of Gaussian 16 at Wed Jul 27 12:48:53 2022.
