 Gaussian 16, Revision C.01,
 Gaussian 16:  ES64L-G16RevC.01  3-Jul-2019

 ---------------------------------------------------------------
 #n M062X/6-311++G(d,p) TD(NStates=1) EmpiricalDispersion=GD3 SP
 ---------------------------------------------------------------

 ----
 SP_8
 ----
 Symbolic Z-matrix:
 Charge =  1 Multiplicity = 1

                         Standard orientation:
 ---------------------------------------------------------------------
 Center     Atomic      Atomic             Coordinates (Angstroms)
 Number     Number       Type             X           Y           Z
 ---------------------------------------------------------------------
      1          6           0       -2.376336   -1.530843    0.000000
      2          6           0       -2.328351   -2.915441    0.000000
      3          6           0       -1.098856   -3.578770    0.000000
      4          6           0        0.062971   -2.869356    0.000000
      5          6           0        2.383878    1.476064    0.000000
      6          6           0        2.367230    2.922901    0.000000
      7          6           0        1.174233    3.606608    0.000000
      8          6           0       -0.002018    2.852756    0.000000
      9          6           0       -1.270150    0.706600    0.000000
     10          6           0        1.243323   -0.705369    0.000000
     11          6           0       -1.207408   -0.801286    0.000000
     12          6           0        0.032487   -1.448029    0.000000
     13          6           0        0.000000    1.415320    0.000000
     14          6           0        1.233377    0.716198    0.000000
     15          1           0       -3.318570   -0.997707    0.000000
     16          1           0       -3.256832   -3.467266    0.000000
     17          1           0       -1.052767   -4.657776    0.000000
     18          1           0        1.006970   -3.397773    0.000000
     19          1           0        2.184943   -1.236826    0.000000
     20          1           0        3.333467    0.954615    0.000000
     21          1           0        3.302004    3.467405    0.000000
     22          1           0        1.161046    4.686278    0.000000
     23          1           0       -0.950024    3.378590    0.000000
     24          1           0       -1.848258    1.093166    0.859585
     25          1           0       -1.848258    1.093166   -0.859585
 ---------------------------------------------------------------------

 SCF Done:  E(RM062X) =  -539.752230688     A.U. after   16 cycles

 Excitation energies and oscillator strengths:

 Excited State   1:      Singlet-A'     2.6849 eV  461.78 nm  f=0.0235  <S**2>=0.000
      47 -> 48         0.70324
 This state for optimization and/or second-order correction.
 Total Energy, E(TD-HF/TD-DFT) =  -539.653561590
 Copying the excited state density for this state as the 1-particle RhoCI density.

 The electronic state is 1-A'.
 Alpha  occ. eigenvalues --  -10.77656 -10.73376 -10.73138 -10.72672 -10.72181
 Alpha  occ. eigenvalues --  -10.71489 -10.71344 -10.71325 -10.71013 -10.70539
 Alpha  occ. eigenvalues --  -10.70011 -10.69931 -10.69689 -10.69532  -1.16525
 Alpha  occ. eigenvalues --   -1.12516  -1.06900  -1.05811  -1.01356  -1.00472
 Alpha  occ. eigenvalues --   -0.95574  -0.91020  -0.86465  -0.85880  -0.83807
 Alpha  occ. eigenvalues --   -0.78334  -0.76124  -0.74349  -0.69574  -0.69287
 Alpha  occ. eigenvalues --   -0.68489  -0.68164  -0.68097  -0.64979  -0.64416
 Alpha  occ. eigenvalues --   -0.62829  -0.61648  -0.60374  -0.59348  -0.59045
 Alpha  occ. eigenvalues --   -0.56977  -0.55251  -0.54648  -0.52422  -0.47125
 Alpha  occ. eigenvalues --   -0.46135  -0.43957
 Alpha virt. eigenvalues --   -0.26090  -0.14775  -0.14018  -0.12748  -0.11182
 Alpha virt. eigenvalues --   -0.10090  -0.09238  -0.07977  -0.07940  -0.07481
 Alpha virt. eigenvalues --   -0.07206  -0.07140  -0.05649  -0.05579  -0.05341

 Mulliken charges:
               1
     1  C    0.062061
     2  C   -0.426633
     3  C   -0.437507
     4  C   -0.034208
     5  C    0.051293
     6  C   -0.435957
     7  C   -0.387684
     8  C    0.130258
     9  C   -0.340141
    10  C    0.084021
    11  C   -0.647885
    12  C    0.778130
    13  C   -0.624172
    14  C    0.609253
    15  H    0.236466
    16  H    0.259422
    17  H    0.247832
    18  H    0.225994
    19  H    0.190014
    20  H    0.217265
    21  H    0.249316
    22  H    0.253302
    23  H    0.237819
    24  H    0.250871
    25  H    0.250871
 Sum of Mulliken charges =   1.00000

 Dipole moment (field-independent basis, Debye):
    X=             -0.0660    Y=             -0.4956    Z=             -0.0000  Tot=              0.5000
 Quadrupole moment (field-independent basis, Debye-Ang):
   XX=            -51.2107   YY=            -36.1789   ZZ=            -84.1342
   XY=             10.1173   XZ=              0.0000   YZ=             -0.0000

 Normal termination of Gaussian 16 at Wed Jul 27 13:39:24 2022.
