 Gaussian 16, Revision C.01,
 Gaussian 16:  ES64L-G16RevC.01  3-Jul-2019

 ---------------------------------------------------------------
 #n M062X/6-311++G(d,p) TD(NStates=1) EmpiricalDispersion=GD3 SP
 ---------------------------------------------------------------

 -----
 SP_18
 -----
 Symbolic Z-matrix:
 Charge =  1 Multiplicity = 1

                         Standard orientation:
 ---------------------------------------------------------------------
 Center     Atomic      Atomic             Coordinates (Angstroms)
 Number     Number       Type             X           Y           Z
 ---------------------------------------------------------------------
      1          6           0       -2.395578   -1.510170    0.000000
      2          6           0       -2.351871   -2.884346    0.000000
      3          6           0       -1.130760   -3.566283    0.000000
      4          6           0        0.033982   -2.877762    0.000000
      5          6           0        2.391940    1.447734    0.000000
      6          6           0        2.395453    2.903041    0.000000
      7          6           0        1.213849    3.603422    0.000000
      8          6           0        0.025978    2.847512    0.000000
      9          6           0       -1.258308    0.727748    0.000000
     10          6           0        1.240626   -0.709777    0.000000
     11          6           0       -1.208023   -0.801260    0.000000
     12          6           0       -0.003626   -1.449525    0.000000
     13          6           0        0.000000    1.415080    0.000000
     14          6           0        1.250852    0.684818    0.000000
     15          1           0       -3.313487   -0.935562    0.000000
     16          1           0       -3.295360   -3.409876    0.000000
     17          1           0       -1.076691   -4.644475    0.000000
     18          1           0        0.956615   -3.442421    0.000000
     19          1           0        2.162015   -1.277413    0.000000
     20          1           0        3.321984    0.889012    0.000000
     21          1           0        3.326721    3.454741    0.000000
     22          1           0        1.230915    4.684057    0.000000
     23          1           0       -0.899526    3.415849    0.000000
     24          1           0       -1.820137    1.142345    0.859585
     25          1           0       -1.820137    1.142345   -0.859585
 ---------------------------------------------------------------------

 SCF Done:  E(RM062X) =  -539.741765556     A.U. after   16 cycles

 Excitation energies and oscillator strengths:

 Excited State   1:      Singlet-A'     2.6704 eV  464.28 nm  f=0.0277  <S**2>=0.000
      47 -> 48         0.70259
 This state for optimization and/or second-order correction.
 Total Energy, E(TD-HF/TD-DFT) =  -539.643628717
 Copying the excited state density for this state as the 1-particle RhoCI density.

 The electronic state is 1-A'.
 Alpha  occ. eigenvalues --  -10.77669 -10.73577 -10.72958 -10.72487 -10.72367
 Alpha  occ. eigenvalues --  -10.71886 -10.71069 -10.71051 -10.70910 -10.70818
 Alpha  occ. eigenvalues --  -10.70311 -10.70067 -10.69625 -10.69140  -1.16563
 Alpha  occ. eigenvalues --   -1.12588  -1.06916  -1.05917  -1.01368  -1.00604
 Alpha  occ. eigenvalues --   -0.95542  -0.91073  -0.86459  -0.85834  -0.83751
 Alpha  occ. eigenvalues --   -0.78348  -0.76119  -0.74312  -0.69849  -0.69082
 Alpha  occ. eigenvalues --   -0.68560  -0.68137  -0.68086  -0.64867  -0.64439
 Alpha  occ. eigenvalues --   -0.62855  -0.61535  -0.60397  -0.59406  -0.59062
 Alpha  occ. eigenvalues --   -0.56965  -0.54999  -0.54652  -0.52455  -0.47031
 Alpha  occ. eigenvalues --   -0.46179  -0.43998
 Alpha virt. eigenvalues --   -0.26101  -0.14912  -0.13909  -0.12687  -0.11183
 Alpha virt. eigenvalues --   -0.10099  -0.09232  -0.08002  -0.07923  -0.07475
 Alpha virt. eigenvalues --   -0.07208  -0.07133  -0.05653  -0.05588  -0.05352

 Mulliken charges:
               1
     1  C    0.043326
     2  C   -0.449158
     3  C   -0.433100
     4  C   -0.155026
     5  C    0.110123
     6  C   -0.421129
     7  C   -0.358095
     8  C    0.155571
     9  C   -0.378299
    10  C    0.048923
    11  C   -0.633107
    12  C    0.927929
    13  C   -0.635436
    14  C    0.556897
    15  H    0.234424
    16  H    0.257878
    17  H    0.243253
    18  H    0.227269
    19  H    0.190842
    20  H    0.214792
    21  H    0.253073
    22  H    0.254746
    23  H    0.241344
    24  H    0.251479
    25  H    0.251479
 Sum of Mulliken charges =   1.00000

 Dipole moment (field-independent basis, Debye):
    X=              0.2256    Y=              0.0253    Z=             -0.0000  Tot=              0.2270
 Quadrupole moment (field-independent basis, Debye-Ang):
   XX=            -51.5380   YY=            -35.9724   ZZ=            -84.1260
   XY=              9.9287   XZ=              0.0000   YZ=             -0.0000

 Normal termination of Gaussian 16 at Wed Jul 27 14:53:28 2022.
