 Gaussian 16, Revision C.01,
 Gaussian 16:  ES64L-G16RevC.01  3-Jul-2019

 ---------------------------------------------------------------
 #n M062X/6-311++G(d,p) TD(NStates=1) EmpiricalDispersion=GD3 SP
 ---------------------------------------------------------------

 -----
 SP_18
 -----
 Symbolic Z-matrix:
 Charge =  1 Multiplicity = 1

                         Standard orientation:
 ---------------------------------------------------------------------
 Center     Atomic      Atomic             Coordinates (Angstroms)
 Number     Number       Type             X           Y           Z
 ---------------------------------------------------------------------
      1          6           0       -2.398194   -1.511188    0.000000
      2          6           0       -2.357072   -2.884968    0.000000
      3          6           0       -1.136977   -3.565435    0.000000
      4          6           0        0.032478   -2.873462    0.000000
      5          6           0        2.396353    1.448776    0.000000
      6          6           0        2.399498    2.898234    0.000000
      7          6           0        1.216126    3.598671    0.000000
      8          6           0        0.026506    2.844746    0.000000
      9          6           0       -1.258532    0.727306    0.000000
     10          6           0        1.242958   -0.705552    0.000000
     11          6           0       -1.205776   -0.799834    0.000000
     12          6           0       -0.003944   -1.447801    0.000000
     13          6           0        0.000000    1.417771    0.000000
     14          6           0        1.252423    0.685441    0.000000
     15          1           0       -3.314619   -0.933996    0.000000
     16          1           0       -3.300764   -3.409914    0.000000
     17          1           0       -1.080461   -4.643627    0.000000
     18          1           0        0.953634   -3.440711    0.000000
     19          1           0        2.163549   -1.274552    0.000000
     20          1           0        3.324925    0.887461    0.000000
     21          1           0        3.329493    3.452020    0.000000
     22          1           0        1.233797    4.679390    0.000000
     23          1           0       -0.897519    3.415673    0.000000
     24          1           0       -1.823559    1.136016    0.859585
     25          1           0       -1.823559    1.136016   -0.859585
 ---------------------------------------------------------------------

 SCF Done:  E(RM062X) =  -539.743394969     A.U. after   16 cycles

 Excitation energies and oscillator strengths:

 Excited State   1:      Singlet-A'     2.7030 eV  458.70 nm  f=0.0289  <S**2>=0.000
      47 -> 48         0.70221
 This state for optimization and/or second-order correction.
 Total Energy, E(TD-HF/TD-DFT) =  -539.644062530
 Copying the excited state density for this state as the 1-particle RhoCI density.

 The electronic state is 1-A'.
 Alpha  occ. eigenvalues --  -10.77660 -10.73640 -10.72875 -10.72428 -10.72420
 Alpha  occ. eigenvalues --  -10.71966 -10.71216 -10.71040 -10.70765 -10.70762
 Alpha  occ. eigenvalues --  -10.70344 -10.70111 -10.69592 -10.69111  -1.16543
 Alpha  occ. eigenvalues --   -1.12574  -1.06939  -1.05912  -1.01341  -1.00523
 Alpha  occ. eigenvalues --   -0.95603  -0.91096  -0.86437  -0.85835  -0.83747
 Alpha  occ. eigenvalues --   -0.78370  -0.76093  -0.74329  -0.69900  -0.69054
 Alpha  occ. eigenvalues --   -0.68567  -0.68142  -0.68054  -0.64848  -0.64351
 Alpha  occ. eigenvalues --   -0.62913  -0.61586  -0.60320  -0.59477  -0.59115
 Alpha  occ. eigenvalues --   -0.56922  -0.54998  -0.54655  -0.52468  -0.46886
 Alpha  occ. eigenvalues --   -0.46176  -0.44134
 Alpha virt. eigenvalues --   -0.26105  -0.14893  -0.13912  -0.12691  -0.11183
 Alpha virt. eigenvalues --   -0.10099  -0.09233  -0.08004  -0.07926  -0.07473
 Alpha virt. eigenvalues --   -0.07208  -0.07133  -0.05651  -0.05589  -0.05352

 Mulliken charges:
               1
     1  C    0.044804
     2  C   -0.448267
     3  C   -0.434511
     4  C   -0.159983
     5  C    0.111807
     6  C   -0.420543
     7  C   -0.356841
     8  C    0.151430
     9  C   -0.381593
    10  C    0.047735
    11  C   -0.629136
    12  C    0.930650
    13  C   -0.638592
    14  C    0.562102
    15  H    0.234364
    16  H    0.257180
    17  H    0.242943
    18  H    0.226975
    19  H    0.190996
    20  H    0.215370
    21  H    0.253578
    22  H    0.255406
    23  H    0.241792
    24  H    0.251167
    25  H    0.251167
 Sum of Mulliken charges =   1.00000

 Dipole moment (field-independent basis, Debye):
    X=              0.3018    Y=              0.1569    Z=              0.0000  Tot=              0.3402
 Quadrupole moment (field-independent basis, Debye-Ang):
   XX=            -51.4814   YY=            -36.0209   ZZ=            -84.1266
   XY=              9.9684   XZ=              0.0000   YZ=             -0.0000

 Normal termination of Gaussian 16 at Wed Jul 27 14:52:02 2022.
