 Gaussian 16, Revision C.01,
 Gaussian 16:  ES64L-G16RevC.01  3-Jul-2019

 ---------------------------------------------------------------
 #n M062X/6-311++G(d,p) TD(NStates=1) EmpiricalDispersion=GD3 SP
 ---------------------------------------------------------------

 ----
 SP_8
 ----
 Symbolic Z-matrix:
 Charge =  1 Multiplicity = 1

                         Standard orientation:
 ---------------------------------------------------------------------
 Center     Atomic      Atomic             Coordinates (Angstroms)
 Number     Number       Type             X           Y           Z
 ---------------------------------------------------------------------
      1          6           0        2.487443   -1.382960    0.000000
      2          6           0        3.691064   -0.703380    0.000000
      3          6           0        3.688694    0.682512    0.000000
      4          6           0        2.477294    1.388403    0.000000
      5          6           0       -2.448873    1.426532    0.000000
      6          6           0       -3.678762    0.745116    0.000000
      7          6           0       -3.711685   -0.640469    0.000000
      8          6           0       -2.497663   -1.337917    0.000000
      9          6           0       -0.018719   -1.453261    0.000000
     10          6           0       -0.000000    1.429243    0.000000
     11          6           0        1.260557   -0.676075    0.000000
     12          6           0        1.251212    0.705527    0.000000
     13          6           0       -1.263667   -0.678079    0.000000
     14          6           0       -1.223385    0.755894    0.000000
     15          1           0        2.442228   -2.465023    0.000000
     16          1           0        4.613459   -1.263940    0.000000
     17          1           0        4.609460    1.248229    0.000000
     18          1           0        2.517513    2.469815    0.000000
     19          1           0        0.034220    2.510063    0.000000
     20          1           0       -2.417427    2.509620    0.000000
     21          1           0       -4.608993    1.296562    0.000000
     22          1           0       -4.659486   -1.159129    0.000000
     23          1           0       -2.533725   -2.421660    0.000000
     24          1           0       -0.039153   -2.145527    0.859585
     25          1           0       -0.039153   -2.145527   -0.859585
 ---------------------------------------------------------------------

 SCF Done:  E(RM062X) =  -539.757615975     A.U. after   15 cycles

 Excitation energies and oscillator strengths:

 Excited State   1:      Singlet-A'     2.8170 eV  440.13 nm  f=0.0287  <S**2>=0.000
      47 -> 48         0.70345
 This state for optimization and/or second-order correction.
 Total Energy, E(TD-HF/TD-DFT) =  -539.654093747
 Copying the excited state density for this state as the 1-particle RhoCI density.

 The electronic state is 1-A'.
 Alpha  occ. eigenvalues --  -10.77631 -10.73628 -10.72827 -10.72616 -10.72222
 Alpha  occ. eigenvalues --  -10.71853 -10.71571 -10.70978 -10.70904 -10.70448
 Alpha  occ. eigenvalues --  -10.70241 -10.69971 -10.69702 -10.69296  -1.16457
 Alpha  occ. eigenvalues --   -1.12469  -1.06972  -1.05788  -1.01284  -1.00175
 Alpha  occ. eigenvalues --   -0.95795  -0.91091  -0.86399  -0.85885  -0.83790
 Alpha  occ. eigenvalues --   -0.78408  -0.76031  -0.74413  -0.69811  -0.69126
 Alpha  occ. eigenvalues --   -0.68484  -0.68113  -0.68090  -0.64851  -0.64164
 Alpha  occ. eigenvalues --   -0.63021  -0.61848  -0.60038  -0.59665  -0.59203
 Alpha  occ. eigenvalues --   -0.56832  -0.55258  -0.54668  -0.52461  -0.46644
 Alpha  occ. eigenvalues --   -0.46068  -0.44469
 Alpha virt. eigenvalues --   -0.26102  -0.14689  -0.14061  -0.12754  -0.11183
 Alpha virt. eigenvalues --   -0.10090  -0.09238  -0.07985  -0.07954  -0.07475
 Alpha virt. eigenvalues --   -0.07206  -0.07140  -0.05643  -0.05582  -0.05340

 Mulliken charges:
               1
     1  C    0.080587
     2  C   -0.428019
     3  C   -0.446366
     4  C   -0.062517
     5  C    0.071880
     6  C   -0.430794
     7  C   -0.382242
     8  C    0.106338
     9  C   -0.348000
    10  C    0.083261
    11  C   -0.633224
    12  C    0.769252
    13  C   -0.639069
    14  C    0.638579
    15  H    0.235124
    16  H    0.254537
    17  H    0.245200
    18  H    0.223341
    19  H    0.190517
    20  H    0.220793
    21  H    0.252561
    22  H    0.258044
    23  H    0.240326
    24  H    0.249945
    25  H    0.249945
 Sum of Mulliken charges =   1.00000

 Dipole moment (field-independent basis, Debye):
    X=             -0.6002    Y=              0.1920    Z=              0.0000  Tot=              0.6301
 Quadrupole moment (field-independent basis, Debye-Ang):
   XX=            -31.0892   YY=            -56.2794   ZZ=            -84.1366
   XY=              0.2111   XZ=             -0.0000   YZ=             -0.0000

 Normal termination of Gaussian 16 at Wed Jul 27 13:29:25 2022.
