 Gaussian 16, Revision C.01,
 Gaussian 16:  ES64L-G16RevC.01  3-Jul-2019

 ---------------------------------------------------------------
 #n M062X/6-311++G(d,p) TD(NStates=1) EmpiricalDispersion=GD3 SP
 ---------------------------------------------------------------

 ----
 SP_6
 ----
 Symbolic Z-matrix:
 Charge =  1 Multiplicity = 1

                         Standard orientation:
 ---------------------------------------------------------------------
 Center     Atomic      Atomic             Coordinates (Angstroms)
 Number     Number       Type             X           Y           Z
 ---------------------------------------------------------------------
      1          6           0       -2.366664   -1.532765    0.000000
      2          6           0       -2.311994   -2.920260    0.000000
      3          6           0       -1.078536   -3.582979    0.000000
      4          6           0        0.072359   -2.877052    0.000000
      5          6           0        2.372460    1.479453    0.000000
      6          6           0        2.352347    2.937437    0.000000
      7          6           0        1.160952    3.617644    0.000000
      8          6           0       -0.009066    2.859848    0.000000
      9          6           0       -1.272034    0.703243    0.000000
     10          6           0        1.238936   -0.713792    0.000000
     11          6           0       -1.212173   -0.804601    0.000000
     12          6           0        0.040549   -1.451398    0.000000
     13          6           0        0.000000    1.409497    0.000000
     14          6           0        1.226308    0.721074    0.000000
     15          1           0       -3.316824   -1.013804    0.000000
     16          1           0       -3.236888   -3.478631    0.000000
     17          1           0       -1.039353   -4.662297    0.000000
     18          1           0        1.023698   -3.392345    0.000000
     19          1           0        2.186220   -1.234860    0.000000
     20          1           0        3.329010    0.971337    0.000000
     21          1           0        3.290720    3.476046    0.000000
     22          1           0        1.140324    4.696819    0.000000
     23          1           0       -0.964617    3.371298    0.000000
     24          1           0       -1.846474    1.097168    0.859585
     25          1           0       -1.846474    1.097168   -0.859585
 ---------------------------------------------------------------------

 SCF Done:  E(RM062X) =  -539.748852290     A.U. after   16 cycles

 Excitation energies and oscillator strengths:

 Excited State   1:      Singlet-A'     2.6068 eV  475.61 nm  f=0.0202  <S**2>=0.000
      47 -> 48         0.70331
 This state for optimization and/or second-order correction.
 Total Energy, E(TD-HF/TD-DFT) =  -539.653052902
 Copying the excited state density for this state as the 1-particle RhoCI density.

 The electronic state is 1-A'.
 Alpha  occ. eigenvalues --  -10.77606 -10.73617 -10.72887 -10.72823 -10.71983
 Alpha  occ. eigenvalues --  -10.71948 -10.71545 -10.71066 -10.71020 -10.70131
 Alpha  occ. eigenvalues --  -10.70062 -10.69877 -10.69682 -10.69523  -1.16587
 Alpha  occ. eigenvalues --   -1.12521  -1.06881  -1.05876  -1.01358  -1.00600
 Alpha  occ. eigenvalues --   -0.95456  -0.90991  -0.86488  -0.85872  -0.83806
 Alpha  occ. eigenvalues --   -0.78281  -0.76201  -0.74317  -0.69652  -0.69345
 Alpha  occ. eigenvalues --   -0.68392  -0.68104  -0.68082  -0.65266  -0.64387
 Alpha  occ. eigenvalues --   -0.62660  -0.61527  -0.60553  -0.59178  -0.59098
 Alpha  occ. eigenvalues --   -0.56972  -0.55363  -0.54433  -0.52414  -0.47508
 Alpha  occ. eigenvalues --   -0.46146  -0.43596
 Alpha virt. eigenvalues --   -0.26100  -0.14776  -0.14008  -0.12740  -0.11189
 Alpha virt. eigenvalues --   -0.10093  -0.09255  -0.07961  -0.07912  -0.07488
 Alpha virt. eigenvalues --   -0.07211  -0.07134  -0.05652  -0.05574  -0.05349

 Mulliken charges:
               1
     1  C    0.059265
     2  C   -0.420076
     3  C   -0.434569
     4  C   -0.006932
     5  C    0.030217
     6  C   -0.440249
     7  C   -0.395015
     8  C    0.133186
     9  C   -0.338065
    10  C    0.084644
    11  C   -0.648776
    12  C    0.760225
    13  C   -0.615257
    14  C    0.612300
    15  H    0.237566
    16  H    0.261278
    17  H    0.249547
    18  H    0.226620
    19  H    0.189450
    20  H    0.216770
    21  H    0.247532
    22  H    0.251559
    23  H    0.236505
    24  H    0.251137
    25  H    0.251137
 Sum of Mulliken charges =   1.00000

 Dipole moment (field-independent basis, Debye):
    X=             -0.2899    Y=             -0.8894    Z=              0.0000  Tot=              0.9355
 Quadrupole moment (field-independent basis, Debye-Ang):
   XX=            -51.2630   YY=            -36.0599   ZZ=            -84.1275
   XY=             10.1037   XZ=             -0.0000   YZ=              0.0000

 Normal termination of Gaussian 16 at Wed Jul 27 13:27:59 2022.
