 Gaussian 16, Revision C.01,
 Gaussian 16:  ES64L-G16RevC.01  3-Jul-2019

 ---------------------------------------------------------------
 #n M062X/6-311++G(d,p) TD(NStates=1) EmpiricalDispersion=GD3 SP
 ---------------------------------------------------------------

 -----
 SP_12
 -----
 Symbolic Z-matrix:
 Charge =  1 Multiplicity = 1

                         Standard orientation:
 ---------------------------------------------------------------------
 Center     Atomic      Atomic             Coordinates (Angstroms)
 Number     Number       Type             X           Y           Z
 ---------------------------------------------------------------------
      1          6           0       -2.392974   -1.526045    0.000000
      2          6           0       -2.355575   -2.905149    0.000000
      3          6           0       -1.132889   -3.570990    0.000000
      4          6           0        0.046145   -2.858164    0.000000
      5          6           0        2.402183    1.468270    0.000000
      6          6           0        2.392443    2.898643    0.000000
      7          6           0        1.197978    3.589244    0.000000
      8          6           0        0.011119    2.841295    0.000000
      9          6           0       -1.266199    0.713620    0.000000
     10          6           0        1.250075   -0.692761    0.000000
     11          6           0       -1.200027   -0.796339    0.000000
     12          6           0        0.016896   -1.442879    0.000000
     13          6           0        0.000000    1.424338    0.000000
     14          6           0        1.245809    0.705805    0.000000
     15          1           0       -3.320598   -0.967400    0.000000
     16          1           0       -3.290857   -3.444493    0.000000
     17          1           0       -1.075325   -4.649576    0.000000
     18          1           0        0.976722   -3.409999    0.000000
     19          1           0        2.181012   -1.243431    0.000000
     20          1           0        3.339097    0.922980    0.000000
     21          1           0        3.321419    3.453045    0.000000
     22          1           0        1.198974    4.669689    0.000000
     23          1           0       -0.923026    3.393063    0.000000
     24          1           0       -1.848664    1.091401    0.859585
     25          1           0       -1.848664    1.091401   -0.859585
 ---------------------------------------------------------------------

 SCF Done:  E(RM062X) =  -539.753351885     A.U. after   15 cycles

 Excitation energies and oscillator strengths:

 Excited State   1:      Singlet-A'     2.7794 eV  446.08 nm  f=0.0294  <S**2>=0.000
      47 -> 48         0.70246
 This state for optimization and/or second-order correction.
 Total Energy, E(TD-HF/TD-DFT) =  -539.651210813
 Copying the excited state density for this state as the 1-particle RhoCI density.

 The electronic state is 1-A'.
 Alpha  occ. eigenvalues --  -10.77657 -10.73547 -10.72940 -10.72472 -10.72385
 Alpha  occ. eigenvalues --  -10.71819 -10.71248 -10.71001 -10.70927 -10.70748
 Alpha  occ. eigenvalues --  -10.70244 -10.69983 -10.69697 -10.69266  -1.16480
 Alpha  occ. eigenvalues --   -1.12508  -1.06952  -1.05812  -1.01314  -1.00303
 Alpha  occ. eigenvalues --   -0.95725  -0.91084  -0.86417  -0.85872  -0.83783
 Alpha  occ. eigenvalues --   -0.78395  -0.76048  -0.74385  -0.69788  -0.69090
 Alpha  occ. eigenvalues --   -0.68545  -0.68122  -0.68113  -0.64794  -0.64267
 Alpha  occ. eigenvalues --   -0.63019  -0.61757  -0.60129  -0.59602  -0.59132
 Alpha  occ. eigenvalues --   -0.56889  -0.55125  -0.54744  -0.52457  -0.46681
 Alpha  occ. eigenvalues --   -0.46120  -0.44384
 Alpha virt. eigenvalues --   -0.26098  -0.14773  -0.14003  -0.12737  -0.11181
 Alpha virt. eigenvalues --   -0.10092  -0.09232  -0.07992  -0.07951  -0.07474
 Alpha virt. eigenvalues --   -0.07205  -0.07139  -0.05646  -0.05585  -0.05341

 Mulliken charges:
               1
     1  C    0.063553
     2  C   -0.436815
     3  C   -0.441808
     4  C   -0.092696
     5  C    0.085323
     6  C   -0.428138
     7  C   -0.372850
     8  C    0.127571
     9  C   -0.356259
    10  C    0.073709
    11  C   -0.639595
    12  C    0.829900
    13  C   -0.636304
    14  C    0.604194
    15  H    0.234964
    16  H    0.256420
    17  H    0.244819
    18  H    0.225333
    19  H    0.190663
    20  H    0.218072
    21  H    0.252476
    22  H    0.256164
    23  H    0.240488
    24  H    0.250408
    25  H    0.250408
 Sum of Mulliken charges =   1.00000

 Dipole moment (field-independent basis, Debye):
    X=              0.3057    Y=              0.1647    Z=              0.0000  Tot=              0.3473
 Quadrupole moment (field-independent basis, Debye-Ang):
   XX=            -51.1498   YY=            -36.2787   ZZ=            -84.1350
   XY=             10.1629   XZ=              0.0000   YZ=             -0.0000

 Normal termination of Gaussian 16 at Wed Jul 27 14:03:30 2022.
