 Gaussian 16, Revision C.01,
 Gaussian 16:  ES64L-G16RevC.01  3-Jul-2019

 ---------------------------------------------------------------
 #n M062X/6-311++G(d,p) TD(NStates=1) EmpiricalDispersion=GD3 SP
 ---------------------------------------------------------------

 -----
 SP_18
 -----
 Symbolic Z-matrix:
 Charge =  1 Multiplicity = 1

                         Standard orientation:
 ---------------------------------------------------------------------
 Center     Atomic      Atomic             Coordinates (Angstroms)
 Number     Number       Type             X           Y           Z
 ---------------------------------------------------------------------
      1          6           0       -2.406033   -1.514265    0.000000
      2          6           0       -2.372638   -2.886837    0.000000
      3          6           0       -1.155565   -3.562869    0.000000
      4          6           0        0.028048   -2.860559    0.000000
      5          6           0        2.409585    1.451910    0.000000
      6          6           0        2.411550    2.883826    0.000000
      7          6           0        1.222862    3.584429    0.000000
      8          6           0        0.028020    2.836450    0.000000
      9          6           0       -1.259224    0.725967    0.000000
     10          6           0        1.250007   -0.692881    0.000000
     11          6           0       -1.199013   -0.795597    0.000000
     12          6           0       -0.004862   -1.442634    0.000000
     13          6           0        0.000000    1.425850    0.000000
     14          6           0        1.257133    0.687320    0.000000
     15          1           0       -3.317998   -0.929343    0.000000
     16          1           0       -3.316932   -3.410047    0.000000
     17          1           0       -1.091692   -4.641085    0.000000
     18          1           0        0.944766   -3.435547    0.000000
     19          1           0        2.168203   -1.265953    0.000000
     20          1           0        3.333731    0.882838    0.000000
     21          1           0        3.337740    3.443899    0.000000
     22          1           0        1.242331    4.665401    0.000000
     23          1           0       -0.891559    3.415123    0.000000
     24          1           0       -1.833904    1.117031    0.859585
     25          1           0       -1.833904    1.117031   -0.859585
 ---------------------------------------------------------------------

 SCF Done:  E(RM062X) =  -539.746590572     A.U. after   15 cycles

 Excitation energies and oscillator strengths:

 Excited State   1:      Singlet-A'     2.7808 eV  445.86 nm  f=0.0322  <S**2>=0.000
      47 -> 48         0.70039
 This state for optimization and/or second-order correction.
 Total Energy, E(TD-HF/TD-DFT) =  -539.644398627
 Copying the excited state density for this state as the 1-particle RhoCI density.

 The electronic state is 1-A'.
 Alpha  occ. eigenvalues --  -10.77609 -10.73828 -10.72623 -10.72596 -10.72212
 Alpha  occ. eigenvalues --  -10.72195 -10.71665 -10.71009 -10.70599 -10.70441
 Alpha  occ. eigenvalues --  -10.70328 -10.70240 -10.69495 -10.69020  -1.16508
 Alpha  occ. eigenvalues --   -1.12532  -1.07004  -1.05925  -1.01269  -1.00305
 Alpha  occ. eigenvalues --   -0.95754  -0.91159  -0.86381  -0.85833  -0.83727
 Alpha  occ. eigenvalues --   -0.78419  -0.76042  -0.74370  -0.70070  -0.69020
 Alpha  occ. eigenvalues --   -0.68552  -0.68153  -0.67926  -0.64887  -0.64080
 Alpha  occ. eigenvalues --   -0.63004  -0.61707  -0.60124  -0.59663  -0.59292
 Alpha  occ. eigenvalues --   -0.56797  -0.55089  -0.54514  -0.52504  -0.46601
 Alpha  occ. eigenvalues --   -0.46151  -0.44424
 Alpha virt. eigenvalues --   -0.26121  -0.14834  -0.13920  -0.12693  -0.11186
 Alpha virt. eigenvalues --   -0.10101  -0.09241  -0.08004  -0.07924  -0.07470
 Alpha virt. eigenvalues --   -0.07209  -0.07128  -0.05646  -0.05589  -0.05357

 Mulliken charges:
               1
     1  C    0.048535
     2  C   -0.444684
     3  C   -0.438941
     4  C   -0.174564
     5  C    0.115620
     6  C   -0.418521
     7  C   -0.352921
     8  C    0.138973
     9  C   -0.393243
    10  C    0.042069
    11  C   -0.613381
    12  C    0.939692
    13  C   -0.647434
    14  C    0.576651
    15  H    0.234245
    16  H    0.255109
    17  H    0.241989
    18  H    0.226169
    19  H    0.191281
    20  H    0.217102
    21  H    0.255083
    22  H    0.257411
    23  H    0.243125
    24  H    0.250319
    25  H    0.250319
 Sum of Mulliken charges =   1.00000

 Dipole moment (field-independent basis, Debye):
    X=              0.5269    Y=              0.5523    Z=              0.0000  Tot=              0.7634
 Quadrupole moment (field-independent basis, Debye-Ang):
   XX=            -51.3072   YY=            -36.1454   ZZ=            -84.1250
   XY=             10.1011   XZ=              0.0000   YZ=              0.0000

 Normal termination of Gaussian 16 at Wed Jul 27 14:47:34 2022.
