 Gaussian 16, Revision C.01,
 Gaussian 16:  ES64L-G16RevC.01  3-Jul-2019

 ---------------------------------------------------------------
 #n M062X/6-311++G(d,p) TD(NStates=1) EmpiricalDispersion=GD3 SP
 ---------------------------------------------------------------

 ----
 SP_4
 ----
 Symbolic Z-matrix:
 Charge =  1 Multiplicity = 1

                         Standard orientation:
 ---------------------------------------------------------------------
 Center     Atomic      Atomic             Coordinates (Angstroms)
 Number     Number       Type             X           Y           Z
 ---------------------------------------------------------------------
      1          6           0       -2.380718   -1.543650    0.000000
      2          6           0       -2.343064   -2.930715    0.000000
      3          6           0       -1.115078   -3.580007    0.000000
      4          6           0        0.067103   -2.846234    0.000000
      5          6           0        2.400984    1.492156    0.000000
      6          6           0        2.375055    2.908636    0.000000
      7          6           0        1.169476    3.585937    0.000000
      8          6           0       -0.010347    2.842084    0.000000
      9          6           0       -1.275779    0.696209    0.000000
     10          6           0        1.254804   -0.684163    0.000000
     11          6           0       -1.196970   -0.794476    0.000000
     12          6           0        0.045219   -1.439464    0.000000
     13          6           0        0.000000    1.427777    0.000000
     14          6           0        1.233598    0.731545    0.000000
     15          1           0       -3.325885   -1.015068    0.000000
     16          1           0       -3.266528   -3.490264    0.000000
     17          1           0       -1.061040   -4.659205    0.000000
     18          1           0        1.012890   -3.372207    0.000000
     19          1           0        2.200810   -1.207533    0.000000
     20          1           0        3.351652    0.973534    0.000000
     21          1           0        3.305316    3.459688    0.000000
     22          1           0        1.147078    4.665595    0.000000
     23          1           0       -0.960576    3.362980    0.000000
     24          1           0       -1.874707    1.044340    0.859585
     25          1           0       -1.874707    1.044340   -0.859585
 ---------------------------------------------------------------------

 SCF Done:  E(RM062X) =  -539.759212154     A.U. after   15 cycles

 Excitation energies and oscillator strengths:

 Excited State   1:      Singlet-A'     2.8100 eV  441.23 nm  f=0.0283  <S**2>=0.000
      47 -> 48         0.70387
 This state for optimization and/or second-order correction.
 Total Energy, E(TD-HF/TD-DFT) =  -539.655946690
 Copying the excited state density for this state as the 1-particle RhoCI density.

 The electronic state is 1-A'.
 Alpha  occ. eigenvalues --  -10.77666 -10.73294 -10.73190 -10.72463 -10.72407
 Alpha  occ. eigenvalues --  -10.71472 -10.71263 -10.71020 -10.70989 -10.70983
 Alpha  occ. eigenvalues --  -10.70042 -10.69902 -10.69723 -10.69533  -1.16450
 Alpha  occ. eigenvalues --   -1.12473  -1.06942  -1.05741  -1.01317  -1.00213
 Alpha  occ. eigenvalues --   -0.95765  -0.91056  -0.86421  -0.85898  -0.83813
 Alpha  occ. eigenvalues --   -0.78396  -0.76034  -0.74411  -0.69582  -0.69227
 Alpha  occ. eigenvalues --   -0.68511  -0.68188  -0.68103  -0.64749  -0.64299
 Alpha  occ. eigenvalues --   -0.63050  -0.61844  -0.60047  -0.59641  -0.59089
 Alpha  occ. eigenvalues --   -0.56903  -0.55203  -0.54829  -0.52438  -0.46655
 Alpha  occ. eigenvalues --   -0.46071  -0.44459
 Alpha virt. eigenvalues --   -0.26089  -0.14687  -0.14083  -0.12769  -0.11178
 Alpha virt. eigenvalues --   -0.10087  -0.09230  -0.07983  -0.07967  -0.07476
 Alpha virt. eigenvalues --   -0.07203  -0.07144  -0.05643  -0.05582  -0.05333

 Mulliken charges:
               1
     1  C    0.080884
     2  C   -0.417394
     3  C   -0.441381
     4  C   -0.013386
     5  C    0.039233
     6  C   -0.437442
     7  C   -0.396152
     8  C    0.105730
     9  C   -0.335938
    10  C    0.091274
    11  C   -0.640551
    12  C    0.727004
    13  C   -0.634109
    14  C    0.652755
    15  H    0.236542
    16  H    0.256805
    17  H    0.247854
    18  H    0.223480
    19  H    0.190400
    20  H    0.220433
    21  H    0.249846
    22  H    0.255805
    23  H    0.238075
    24  H    0.250116
    25  H    0.250116
 Sum of Mulliken charges =   1.00000

 Dipole moment (field-independent basis, Debye):
    X=              0.1627    Y=             -0.0931    Z=             -0.0000  Tot=              0.1875
 Quadrupole moment (field-independent basis, Debye-Ang):
   XX=            -50.8423   YY=            -36.5433   ZZ=            -84.1409
   XY=             10.3456   XZ=              0.0000   YZ=             -0.0000

 Normal termination of Gaussian 16 at Wed Jul 27 13:03:13 2022.
