 Gaussian 16, Revision C.01,
 Gaussian 16:  ES64L-G16RevC.01  3-Jul-2019

 ---------------------------------------------------------------
 #n M062X/6-311++G(d,p) TD(NStates=1) EmpiricalDispersion=GD3 SP
 ---------------------------------------------------------------

 ----
 SP_4
 ----
 Symbolic Z-matrix:
 Charge =  1 Multiplicity = 1

                         Standard orientation:
 ---------------------------------------------------------------------
 Center     Atomic      Atomic             Coordinates (Angstroms)
 Number     Number       Type             X           Y           Z
 ---------------------------------------------------------------------
      1          6           0        2.492532   -1.361477    0.000000
      2          6           0        3.695564   -0.670947    0.000000
      3          6           0        3.681676    0.716476    0.000000
      4          6           0        2.468551    1.409698    0.000000
      5          6           0       -2.457762    1.405375    0.000000
      6          6           0       -3.686047    0.711186    0.000000
      7          6           0       -3.707453   -0.673028    0.000000
      8          6           0       -2.492778   -1.359385    0.000000
      9          6           0       -0.004947   -1.453368    0.000000
     10          6           0        0.000000    1.429189    0.000000
     11          6           0        1.265910   -0.673593    0.000000
     12          6           0        1.243288    0.723482    0.000000
     13          6           0       -1.258202   -0.680539    0.000000
     14          6           0       -1.231650    0.738123    0.000000
     15          1           0        2.474267   -2.444289    0.000000
     16          1           0        4.626667   -1.217489    0.000000
     17          1           0        4.604023    1.279555    0.000000
     18          1           0        2.484226    2.491815    0.000000
     19          1           0        0.011880    2.510263    0.000000
     20          1           0       -2.450876    2.488294    0.000000
     21          1           0       -4.614505    1.265145    0.000000
     22          1           0       -4.646836   -1.205884    0.000000
     23          1           0       -2.501875   -2.442998    0.000000
     24          1           0       -0.019527   -2.145782    0.859585
     25          1           0       -0.019527   -2.145782   -0.859585
 ---------------------------------------------------------------------

 SCF Done:  E(RM062X) =  -539.759544292     A.U. after   15 cycles

 Excitation energies and oscillator strengths:

 Excited State   1:      Singlet-A'     2.8200 eV  439.65 nm  f=0.0289  <S**2>=0.000
      47 -> 48         0.70400
 This state for optimization and/or second-order correction.
 Total Energy, E(TD-HF/TD-DFT) =  -539.655909691
 Copying the excited state density for this state as the 1-particle RhoCI density.

 The electronic state is 1-A'.
 Alpha  occ. eigenvalues --  -10.77663 -10.73366 -10.73114 -10.72470 -10.72398
 Alpha  occ. eigenvalues --  -10.71541 -10.71199 -10.71137 -10.70981 -10.70871
 Alpha  occ. eigenvalues --  -10.70074 -10.69870 -10.69761 -10.69497  -1.16446
 Alpha  occ. eigenvalues --   -1.12469  -1.06947  -1.05740  -1.01312  -1.00192
 Alpha  occ. eigenvalues --   -0.95779  -0.91061  -0.86417  -0.85898  -0.83812
 Alpha  occ. eigenvalues --   -0.78400  -0.76029  -0.74415  -0.69608  -0.69210
 Alpha  occ. eigenvalues --   -0.68509  -0.68181  -0.68105  -0.64748  -0.64273
 Alpha  occ. eigenvalues --   -0.63062  -0.61858  -0.60012  -0.59676  -0.59102
 Alpha  occ. eigenvalues --   -0.56892  -0.55208  -0.54824  -0.52441  -0.46625
 Alpha  occ. eigenvalues --   -0.46062  -0.44496
 Alpha virt. eigenvalues --   -0.26090  -0.14680  -0.14086  -0.12769  -0.11179
 Alpha virt. eigenvalues --   -0.10087  -0.09230  -0.07984  -0.07968  -0.07475
 Alpha virt. eigenvalues --   -0.07204  -0.07145  -0.05643  -0.05582  -0.05333

 Mulliken charges:
               1
     1  C    0.084216
     2  C   -0.417683
     3  C   -0.442601
     4  C   -0.017219
     5  C    0.042394
     6  C   -0.436646
     7  C   -0.395401
     8  C    0.102795
     9  C   -0.336573
    10  C    0.091205
    11  C   -0.638227
    12  C    0.723872
    13  C   -0.635324
    14  C    0.655605
    15  H    0.236299
    16  H    0.256113
    17  H    0.247448
    18  H    0.223067
    19  H    0.190431
    20  H    0.220909
    21  H    0.250288
    22  H    0.256491
    23  H    0.238394
    24  H    0.250075
    25  H    0.250075
 Sum of Mulliken charges =   1.00000

 Dipole moment (field-independent basis, Debye):
    X=             -0.1485    Y=              0.1878    Z=              0.0000  Tot=              0.2394
 Quadrupole moment (field-independent basis, Debye-Ang):
   XX=            -31.1181   YY=            -56.2648   ZZ=            -84.1411
   XY=              0.2558   XZ=             -0.0000   YZ=             -0.0000

 Normal termination of Gaussian 16 at Wed Jul 27 13:01:47 2022.
