 Gaussian 16, Revision C.01,
 Gaussian 16:  ES64L-G16RevC.01  3-Jul-2019

 ---------------------------------------------------------------
 #n M062X/6-311++G(d,p) TD(NStates=1) EmpiricalDispersion=GD3 SP
 ---------------------------------------------------------------

 -----
 SP_12
 -----
 Symbolic Z-matrix:
 Charge =  1 Multiplicity = 1

                         Standard orientation:
 ---------------------------------------------------------------------
 Center     Atomic      Atomic             Coordinates (Angstroms)
 Number     Number       Type             X           Y           Z
 ---------------------------------------------------------------------
      1          6           0        2.484762   -1.394228    0.000000
      2          6           0        3.685743   -0.719026    0.000000
      3          6           0        3.691010    0.666843    0.000000
      4          6           0        2.484308    1.378784    0.000000
      5          6           0       -2.441677    1.435975    0.000000
      6          6           0       -3.676114    0.760744    0.000000
      7          6           0       -3.716672   -0.624663    0.000000
      8          6           0       -2.500091   -1.326666    0.000000
      9          6           0       -0.028078   -1.453126    0.000000
     10          6           0        0.000000    1.429311    0.000000
     11          6           0        1.259850   -0.675590    0.000000
     12          6           0        1.257952    0.692821    0.000000
     13          6           0       -1.264515   -0.678595    0.000000
     14          6           0       -1.216214    0.768366    0.000000
     15          1           0        2.419239   -2.475480    0.000000
     16          1           0        4.601603   -1.289945    0.000000
     17          1           0        4.609532    1.236205    0.000000
     18          1           0        2.542432    2.459438    0.000000
     19          1           0        0.051327    2.509810    0.000000
     20          1           0       -2.392309    2.519143    0.000000
     21          1           0       -4.608832    1.308701    0.000000
     22          1           0       -4.670640   -1.132737    0.000000
     23          1           0       -2.556478   -2.410438    0.000000
     24          1           0       -0.058726   -2.145203    0.859585
     25          1           0       -0.058726   -2.145203   -0.859585
 ---------------------------------------------------------------------

 SCF Done:  E(RM062X) =  -539.754334870     A.U. after   15 cycles

 Excitation energies and oscillator strengths:

 Excited State   1:      Singlet-A'     2.8099 eV  441.24 nm  f=0.0287  <S**2>=0.000
      47 -> 48         0.70251
 This state for optimization and/or second-order correction.
 Total Energy, E(TD-HF/TD-DFT) =  -539.651072600
 Copying the excited state density for this state as the 1-particle RhoCI density.

 The electronic state is 1-A'.
 Alpha  occ. eigenvalues --  -10.77587 -10.73810 -10.72693 -10.72612 -10.72103
 Alpha  occ. eigenvalues --  -10.72100 -10.71856 -10.70977 -10.70682 -10.70373
 Alpha  occ. eigenvalues --  -10.70176 -10.70144 -10.69567 -10.69133  -1.16476
 Alpha  occ. eigenvalues --   -1.12474  -1.07006  -1.05857  -1.01250  -1.00162
 Alpha  occ. eigenvalues --   -0.95811  -0.91134  -0.86375  -0.85865  -0.83758
 Alpha  occ. eigenvalues --   -0.78418  -0.76035  -0.74406  -0.70008  -0.69085
 Alpha  occ. eigenvalues --   -0.68463  -0.68127  -0.67964  -0.64944  -0.64061
 Alpha  occ. eigenvalues --   -0.62964  -0.61826  -0.60077  -0.59652  -0.59324
 Alpha  occ. eigenvalues --   -0.56765  -0.55274  -0.54494  -0.52490  -0.46666
 Alpha  occ. eigenvalues --   -0.46083  -0.44431
 Alpha virt. eigenvalues --   -0.26118  -0.14711  -0.14018  -0.12731  -0.11187
 Alpha virt. eigenvalues --   -0.10096  -0.09247  -0.07987  -0.07935  -0.07473
 Alpha virt. eigenvalues --   -0.07209  -0.07133  -0.05643  -0.05583  -0.05350

 Mulliken charges:
               1
     1  C    0.072365
     2  C   -0.435313
     3  C   -0.447659
     4  C   -0.110204
     5  C    0.093587
     6  C   -0.425048
     7  C   -0.369170
     8  C    0.113274
     9  C   -0.366794
    10  C    0.068789
    11  C   -0.623842
    12  C    0.831780
    13  C   -0.643914
    14  C    0.620700
    15  H    0.234513
    16  H    0.253665
    17  H    0.243368
    18  H    0.224069
    19  H    0.190701
    20  H    0.220215
    21  H    0.254375
    22  H    0.258891
    23  H    0.242067
    24  H    0.249793
    25  H    0.249793
 Sum of Mulliken charges =   1.00000

 Dipole moment (field-independent basis, Debye):
    X=             -0.8974    Y=              0.1975    Z=              0.0000  Tot=              0.9188
 Quadrupole moment (field-independent basis, Debye-Ang):
   XX=            -31.0558   YY=            -56.3001   ZZ=            -84.1301
   XY=              0.3155   XZ=             -0.0000   YZ=             -0.0000

 Normal termination of Gaussian 16 at Wed Jul 27 13:57:51 2022.
