 Gaussian 16, Revision C.01,
 Gaussian 16:  ES64L-G16RevC.01  3-Jul-2019

 ---------------------------------------------------------------
 #n M062X/6-311++G(d,p) TD(NStates=1) EmpiricalDispersion=GD3 SP
 ---------------------------------------------------------------

 -----
 SP_14
 -----
 Symbolic Z-matrix:
 Charge =  1 Multiplicity = 1

                         Standard orientation:
 ---------------------------------------------------------------------
 Center     Atomic      Atomic             Coordinates (Angstroms)
 Number     Number       Type             X           Y           Z
 ---------------------------------------------------------------------
      1          6           0       -2.399952   -1.523151    0.000000
      2          6           0       -2.366484   -2.899677    0.000000
      3          6           0       -1.146671   -3.567451    0.000000
      4          6           0        0.038620   -2.854679    0.000000
      5          6           0        2.409082    1.463860    0.000000
      6          6           0        2.402863    2.888912    0.000000
      7          6           0        1.208545    3.582913    0.000000
      8          6           0        0.017285    2.836928    0.000000
      9          6           0       -1.264116    0.717304    0.000000
     10          6           0        1.252383   -0.688575    0.000000
     11          6           0       -1.197434   -0.794662    0.000000
     12          6           0        0.009327   -1.441107    0.000000
     13          6           0        0.000000    1.427524    0.000000
     14          6           0        1.251184    0.700282    0.000000
     15          1           0       -3.320916   -0.953137    0.000000
     16          1           0       -3.304999   -3.433074    0.000000
     17          1           0       -1.084558   -4.645898    0.000000
     18          1           0        0.963137   -3.416842    0.000000
     19          1           0        2.178312   -1.248097    0.000000
     20          1           0        3.340305    0.908030    0.000000
     21          1           0        3.329624    3.447284    0.000000
     22          1           0        1.216302    4.663646    0.000000
     23          1           0       -0.910570    3.400278    0.000000
     24          1           0       -1.847214    1.093641    0.859585
     25          1           0       -1.847214    1.093641   -0.859585
 ---------------------------------------------------------------------

 SCF Done:  E(RM062X) =  -539.752040806     A.U. after   15 cycles

 Excitation energies and oscillator strengths:

 Excited State   1:      Singlet-A'     2.7985 eV  443.04 nm  f=0.0311  <S**2>=0.000
      47 -> 48         0.70161
 This state for optimization and/or second-order correction.
 Total Energy, E(TD-HF/TD-DFT) =  -539.649198413
 Copying the excited state density for this state as the 1-particle RhoCI density.

 The electronic state is 1-A'.
 Alpha  occ. eigenvalues --  -10.77630 -10.73707 -10.72753 -10.72571 -10.72260
 Alpha  occ. eigenvalues --  -10.72017 -10.71538 -10.70997 -10.70757 -10.70463
 Alpha  occ. eigenvalues --  -10.70342 -10.70110 -10.69597 -10.69151  -1.16482
 Alpha  occ. eigenvalues --   -1.12505  -1.06982  -1.05851  -1.01283  -1.00253
 Alpha  occ. eigenvalues --   -0.95768  -0.91120  -0.86394  -0.85860  -0.83761
 Alpha  occ. eigenvalues --   -0.78413  -0.76036  -0.74390  -0.69933  -0.69050
 Alpha  occ. eigenvalues --   -0.68535  -0.68133  -0.68025  -0.64846  -0.64140
 Alpha  occ. eigenvalues --   -0.63028  -0.61771  -0.60074  -0.59671  -0.59227
 Alpha  occ. eigenvalues --   -0.56827  -0.55149  -0.54628  -0.52479  -0.46606
 Alpha  occ. eigenvalues --   -0.46114  -0.44458
 Alpha virt. eigenvalues --   -0.26109  -0.14776  -0.13983  -0.12724  -0.11183
 Alpha virt. eigenvalues --   -0.10095  -0.09237  -0.07995  -0.07941  -0.07472
 Alpha virt. eigenvalues --   -0.07206  -0.07135  -0.05645  -0.05586  -0.05347

 Mulliken charges:
               1
     1  C    0.061502
     2  C   -0.439894
     3  C   -0.442918
     4  C   -0.123021
     5  C    0.098244
     6  C   -0.424366
     7  C   -0.365370
     8  C    0.127750
     9  C   -0.369293
    10  C    0.064117
    11  C   -0.630475
    12  C    0.864381
    13  C   -0.641706
    14  C    0.599992
    15  H    0.234549
    16  H    0.255285
    17  H    0.243521
    18  H    0.225294
    19  H    0.190875
    20  H    0.218293
    21  H    0.253834
    22  H    0.257261
    23  H    0.241753
    24  H    0.250196
    25  H    0.250196
 Sum of Mulliken charges =   1.00000

 Dipole moment (field-independent basis, Debye):
    X=              0.4533    Y=              0.4275    Z=              0.0000  Tot=              0.6231
 Quadrupole moment (field-independent basis, Debye-Ang):
   XX=            -51.1439   YY=            -36.2777   ZZ=            -84.1315
   XY=             10.1841   XZ=              0.0000   YZ=             -0.0000

 Normal termination of Gaussian 16 at Wed Jul 27 14:16:33 2022.
