 Gaussian 16, Revision C.01,
 Gaussian 16:  ES64L-G16RevC.01  3-Jul-2019

 ---------------------------------------------------------------
 #n M062X/6-311++G(d,p) TD(NStates=1) EmpiricalDispersion=GD3 SP
 ---------------------------------------------------------------

 ----
 SP_4
 ----
 Symbolic Z-matrix:
 Charge =  1 Multiplicity = 1

                         Standard orientation:
 ---------------------------------------------------------------------
 Center     Atomic      Atomic             Coordinates (Angstroms)
 Number     Number       Type             X           Y           Z
 ---------------------------------------------------------------------
      1          6           0       -2.367537   -1.538646    0.000000
      2          6           0       -2.316724   -2.927575    0.000000
      3          6           0       -1.083525   -3.584002    0.000000
      4          6           0        0.075174   -2.867623    0.000000
      5          6           0        2.378786    1.486977    0.000000
      6          6           0        2.354221    2.932693    0.000000
      7          6           0        1.157431    3.609659    0.000000
      8          6           0       -0.013507    2.855880    0.000000
      9          6           0       -1.274720    0.698257    0.000000
     10          6           0        1.243518   -0.705304    0.000000
     11          6           0       -1.208084   -0.801918    0.000000
     12          6           0        0.047075   -1.447942    0.000000
     13          6           0        0.000000    1.414389    0.000000
     14          6           0        1.225602    0.728419    0.000000
     15          1           0       -3.319858   -1.023283    0.000000
     16          1           0       -3.238980   -3.490085    0.000000
     17          1           0       -1.041588   -4.663436    0.000000
     18          1           0        1.028105   -3.380374    0.000000
     19          1           0        2.193354   -1.221623    0.000000
     20          1           0        3.336570    0.981595    0.000000
     21          1           0        3.290990    3.473543    0.000000
     22          1           0        1.131895    4.688755    0.000000
     23          1           0       -0.970861    3.363538    0.000000
     24          1           0       -1.857945    1.075893    0.859585
     25          1           0       -1.857945    1.075893   -0.859585
 ---------------------------------------------------------------------

 SCF Done:  E(RM062X) =  -539.753471384     A.U. after   15 cycles

 Excitation energies and oscillator strengths:

 Excited State   1:      Singlet-A'     2.6740 eV  463.66 nm  f=0.0215  <S**2>=0.000
      47 -> 48         0.70337
 This state for optimization and/or second-order correction.
 Total Energy, E(TD-HF/TD-DFT) =  -539.655202565
 Copying the excited state density for this state as the 1-particle RhoCI density.

 The electronic state is 1-A'.
 Alpha  occ. eigenvalues --  -10.77623 -10.73564 -10.72926 -10.72757 -10.72069
 Alpha  occ. eigenvalues --  -10.71783 -10.71557 -10.71104 -10.71002 -10.70273
 Alpha  occ. eigenvalues --  -10.70065 -10.69877 -10.69704 -10.69523  -1.16531
 Alpha  occ. eigenvalues --   -1.12497  -1.06908  -1.05822  -1.01332  -1.00446
 Alpha  occ. eigenvalues --   -0.95573  -0.91019  -0.86459  -0.85884  -0.83810
 Alpha  occ. eigenvalues --   -0.78326  -0.76138  -0.74354  -0.69639  -0.69307
 Alpha  occ. eigenvalues --   -0.68418  -0.68129  -0.68089  -0.65104  -0.64349
 Alpha  occ. eigenvalues --   -0.62778  -0.61654  -0.60406  -0.59304  -0.59112
 Alpha  occ. eigenvalues --   -0.56936  -0.55345  -0.54545  -0.52424  -0.47223
 Alpha  occ. eigenvalues --   -0.46128  -0.43874
 Alpha virt. eigenvalues --   -0.26097  -0.14731  -0.14040  -0.12755  -0.11185
 Alpha virt. eigenvalues --   -0.10091  -0.09247  -0.07968  -0.07933  -0.07483
 Alpha virt. eigenvalues --   -0.07208  -0.07138  -0.05648  -0.05576  -0.05343

 Mulliken charges:
               1
     1  C    0.066914
     2  C   -0.415045
     3  C   -0.435897
     4  C    0.004661
     5  C    0.021987
     6  C   -0.441512
     7  C   -0.399415
     8  C    0.122343
     9  C   -0.336265
    10  C    0.088419
    11  C   -0.646439
    12  C    0.738158
    13  C   -0.620652
    14  C    0.633459
    15  H    0.237786
    16  H    0.260312
    17  H    0.249804
    18  H    0.225595
    19  H    0.189789
    20  H    0.218125
    21  H    0.247596
    22  H    0.252437
    23  H    0.236519
    24  H    0.250660
    25  H    0.250660
 Sum of Mulliken charges =   1.00000

 Dipole moment (field-independent basis, Debye):
    X=             -0.2097    Y=             -0.7584    Z=             -0.0000  Tot=              0.7869
 Quadrupole moment (field-independent basis, Debye-Ang):
   XX=            -51.1089   YY=            -36.2267   ZZ=            -84.1327
   XY=             10.1925   XZ=             -0.0000   YZ=             -0.0000

 Normal termination of Gaussian 16 at Wed Jul 27 13:10:32 2022.
