 Gaussian 16, Revision C.01,
 Gaussian 16:  ES64L-G16RevC.01  3-Jul-2019

 ---------------------------------------------------------------
 #n M062X/6-311++G(d,p) TD(NStates=1) EmpiricalDispersion=GD3 SP
 ---------------------------------------------------------------

 ----
 SP_8
 ----
 Symbolic Z-matrix:
 Charge =  1 Multiplicity = 1

                         Standard orientation:
 ---------------------------------------------------------------------
 Center     Atomic      Atomic             Coordinates (Angstroms)
 Number     Number       Type             X           Y           Z
 ---------------------------------------------------------------------
      1          6           0       -2.386855   -1.534870    0.000000
      2          6           0       -2.349338   -2.917946    0.000000
      3          6           0       -1.123977   -3.575512    0.000000
      4          6           0        0.056658   -2.852218    0.000000
      5          6           0        2.401605    1.480216    0.000000
      6          6           0        2.383738    2.903662    0.000000
      7          6           0        1.183697    3.587624    0.000000
      8          6           0        0.000375    2.841710    0.000000
      9          6           0       -1.271016    0.704922    0.000000
     10          6           0        1.252449   -0.688460    0.000000
     11          6           0       -1.198483   -0.795413    0.000000
     12          6           0        0.031070   -1.441214    0.000000
     13          6           0        0.000000    1.426047    0.000000
     14          6           0        1.239740    0.718698    0.000000
     15          1           0       -3.323303   -0.991232    0.000000
     16          1           0       -3.278739   -3.467414    0.000000
     17          1           0       -1.068172   -4.654390    0.000000
     18          1           0        0.994884   -3.391142    0.000000
     19          1           0        2.190968   -1.225501    0.000000
     20          1           0        3.345441    0.948242    0.000000
     21          1           0        3.313342    3.456387    0.000000
     22          1           0        1.172990    4.667711    0.000000
     23          1           0       -0.941865    3.378063    0.000000
     24          1           0       -1.861764    1.067903    0.859585
     25          1           0       -1.861764    1.067903   -0.859585
 ---------------------------------------------------------------------

 SCF Done:  E(RM062X) =  -539.756973824     A.U. after   15 cycles

 Excitation energies and oscillator strengths:

 Excited State   1:      Singlet-A'     2.7968 eV  443.30 nm  f=0.0287  <S**2>=0.000
      47 -> 48         0.70323
 This state for optimization and/or second-order correction.
 Total Energy, E(TD-HF/TD-DFT) =  -539.654192171
 Copying the excited state density for this state as the 1-particle RhoCI density.

 The electronic state is 1-A'.
 Alpha  occ. eigenvalues --  -10.77664 -10.73421 -10.73065 -10.72441 -10.72425
 Alpha  occ. eigenvalues --  -10.71644 -10.71119 -10.71094 -10.70990 -10.70884
 Alpha  occ. eigenvalues --  -10.70143 -10.69853 -10.69800 -10.69400  -1.16462
 Alpha  occ. eigenvalues --   -1.12486  -1.06945  -1.05767  -1.01317  -1.00250
 Alpha  occ. eigenvalues --   -0.95747  -0.91065  -0.86421  -0.85889  -0.83802
 Alpha  occ. eigenvalues --   -0.78395  -0.76040  -0.74401  -0.69671  -0.69159
 Alpha  occ. eigenvalues --   -0.68527  -0.68162  -0.68110  -0.64764  -0.64292
 Alpha  occ. eigenvalues --   -0.63037  -0.61809  -0.60083  -0.59621  -0.59102
 Alpha  occ. eigenvalues --   -0.56901  -0.55170  -0.54802  -0.52444  -0.46667
 Alpha  occ. eigenvalues --   -0.46092  -0.44426
 Alpha virt. eigenvalues --   -0.26092  -0.14723  -0.14050  -0.12757  -0.11179
 Alpha virt. eigenvalues --   -0.10089  -0.09231  -0.07987  -0.07961  -0.07475
 Alpha virt. eigenvalues --   -0.07204  -0.07143  -0.05644  -0.05583  -0.05336

 Mulliken charges:
               1
     1  C    0.072441
     2  C   -0.427726
     3  C   -0.442422
     4  C   -0.050168
     5  C    0.063673
     6  C   -0.433124
     7  C   -0.384588
     8  C    0.116296
     9  C   -0.343254
    10  C    0.084997
    11  C   -0.641657
    12  C    0.773072
    13  C   -0.634303
    14  C    0.627044
    15  H    0.235661
    16  H    0.256613
    17  H    0.246353
    18  H    0.224439
    19  H    0.190487
    20  H    0.219266
    21  H    0.251184
    22  H    0.255989
    23  H    0.239243
    24  H    0.250241
    25  H    0.250241
 Sum of Mulliken charges =   1.00000

 Dipole moment (field-independent basis, Debye):
    X=              0.2337    Y=              0.0364    Z=             -0.0000  Tot=              0.2366
 Quadrupole moment (field-independent basis, Debye-Ang):
   XX=            -50.9932   YY=            -36.4097   ZZ=            -84.1388
   XY=             10.2530   XZ=              0.0000   YZ=             -0.0000

 Normal termination of Gaussian 16 at Wed Jul 27 13:33:42 2022.
