 Gaussian 16, Revision C.01,
 Gaussian 16:  ES64L-G16RevC.01  3-Jul-2019

 ---------------------------------------------------------------
 #n M062X/6-311++G(d,p) TD(NStates=1) EmpiricalDispersion=GD3 SP
 ---------------------------------------------------------------

 ----
 SP_8
 ----
 Symbolic Z-matrix:
 Charge =  1 Multiplicity = 1

                         Standard orientation:
 ---------------------------------------------------------------------
 Center     Atomic      Atomic             Coordinates (Angstroms)
 Number     Number       Type             X           Y           Z
 ---------------------------------------------------------------------
      1          6           0       -2.389481   -1.535886    0.000000
      2          6           0       -2.354570   -2.918573    0.000000
      3          6           0       -1.130231   -3.574687    0.000000
      4          6           0        0.055116   -2.847931    0.000000
      5          6           0        2.406033    1.481256    0.000000
      6          6           0        2.387831    2.898858    0.000000
      7          6           0        1.186023    3.582882    0.000000
      8          6           0        0.000943    2.838950    0.000000
      9          6           0       -1.271240    0.704495    0.000000
     10          6           0        1.254753   -0.684234    0.000000
     11          6           0       -1.196243   -0.793962    0.000000
     12          6           0        0.030732   -1.439510    0.000000
     13          6           0       -0.000000    1.428731    0.000000
     14          6           0        1.241329    0.719326    0.000000
     15          1           0       -3.324477   -0.989634    0.000000
     16          1           0       -3.284197   -3.467459    0.000000
     17          1           0       -1.071990   -4.653543    0.000000
     18          1           0        0.991893   -3.389471    0.000000
     19          1           0        2.192496   -1.222662    0.000000
     20          1           0        3.348426    0.946663    0.000000
     21          1           0        3.316147    3.453650    0.000000
     22          1           0        1.175928    4.663073    0.000000
     23          1           0       -0.939851    3.377922    0.000000
     24          1           0       -1.865174    1.061588    0.859585
     25          1           0       -1.865174    1.061588   -0.859585
 ---------------------------------------------------------------------

 SCF Done:  E(RM062X) =  -539.757462082     A.U. after   15 cycles

 Excitation energies and oscillator strengths:

 Excited State   1:      Singlet-A'     2.8118 eV  440.94 nm  f=0.0295  <S**2>=0.000
      47 -> 48         0.70328
 This state for optimization and/or second-order correction.
 Total Energy, E(TD-HF/TD-DFT) =  -539.654129706
 Copying the excited state density for this state as the 1-particle RhoCI density.

 The electronic state is 1-A'.
 Alpha  occ. eigenvalues --  -10.77657 -10.73490 -10.72986 -10.72501 -10.72359
 Alpha  occ. eigenvalues --  -10.71716 -10.71268 -10.71032 -10.70986 -10.70737
 Alpha  occ. eigenvalues --  -10.70176 -10.69893 -10.69767 -10.69365  -1.16456
 Alpha  occ. eigenvalues --   -1.12480  -1.06954  -1.05769  -1.01306  -1.00215
 Alpha  occ. eigenvalues --   -0.95772  -0.91075  -0.86412  -0.85888  -0.83799
 Alpha  occ. eigenvalues --   -0.78403  -0.76032  -0.74408  -0.69713  -0.69141
 Alpha  occ. eigenvalues --   -0.68520  -0.68144  -0.68112  -0.64774  -0.64243
 Alpha  occ. eigenvalues --   -0.63053  -0.61830  -0.60036  -0.59667  -0.59131
 Alpha  occ. eigenvalues --   -0.56878  -0.55189  -0.54778  -0.52450  -0.46624
 Alpha  occ. eigenvalues --   -0.46079  -0.44479
 Alpha virt. eigenvalues --   -0.26094  -0.14711  -0.14055  -0.12757  -0.11180
 Alpha virt. eigenvalues --   -0.10089  -0.09232  -0.07987  -0.07961  -0.07474
 Alpha virt. eigenvalues --   -0.07204  -0.07142  -0.05644  -0.05583  -0.05337

 Mulliken charges:
               1
     1  C    0.075044
     2  C   -0.427903
     3  C   -0.443685
     4  C   -0.054261
     5  C    0.066557
     6  C   -0.432381
     7  C   -0.383807
     8  C    0.112869
     9  C   -0.344603
    10  C    0.084683
    11  C   -0.639354
    12  C    0.771927
    13  C   -0.636304
    14  C    0.631324
    15  H    0.235474
    16  H    0.255917
    17  H    0.245972
    18  H    0.224065
    19  H    0.190527
    20  H    0.219775
    21  H    0.251646
    22  H    0.256671
    23  H    0.239605
    24  H    0.250122
    25  H    0.250122
 Sum of Mulliken charges =   1.00000

 Dipole moment (field-independent basis, Debye):
    X=              0.3074    Y=              0.1701    Z=             -0.0000  Tot=              0.3514
 Quadrupole moment (field-independent basis, Debye-Ang):
   XX=            -50.9373   YY=            -36.4584   ZZ=            -84.1386
   XY=             10.2926   XZ=              0.0000   YZ=             -0.0000

 Normal termination of Gaussian 16 at Wed Jul 27 13:32:16 2022.
