 Gaussian 16, Revision C.01,
 Gaussian 16:  ES64L-G16RevC.01  3-Jul-2019

 ---------------------------------------------------------------
 #n M062X/6-311++G(d,p) TD(NStates=1) EmpiricalDispersion=GD3 SP
 ---------------------------------------------------------------

 -----
 SP_14
 -----
 Symbolic Z-matrix:
 Charge =  1 Multiplicity = 1

                         Standard orientation:
 ---------------------------------------------------------------------
 Center     Atomic      Atomic             Coordinates (Angstroms)
 Number     Number       Type             X           Y           Z
 ---------------------------------------------------------------------
      1          6           0       -2.392096   -1.520088    0.000000
      2          6           0       -2.350862   -2.897804    0.000000
      3          6           0       -1.128006   -3.569978    0.000000
      4          6           0        0.043138   -2.867565    0.000000
      5          6           0        2.395828    1.460733    0.000000
      6          6           0        2.390712    2.903324    0.000000
      7          6           0        1.201702    3.597149    0.000000
      8          6           0        0.015687    2.845218    0.000000
      9          6           0       -1.263434    0.718618    0.000000
     10          6           0        1.245395   -0.701250    0.000000
     11          6           0       -1.204178   -0.798950    0.000000
     12          6           0        0.010287   -1.446253    0.000000
     13          6           0        0.000000    1.419457    0.000000
     14          6           0        1.246450    0.698402    0.000000
     15          1           0       -3.317478   -0.957852    0.000000
     16          1           0       -3.288745   -3.432944    0.000000
     17          1           0       -1.073230   -4.648440    0.000000
     18          1           0        0.972055   -3.421942    0.000000
     19          1           0        2.173692   -1.256661    0.000000
     20          1           0        3.331438    0.912702    0.000000
     21          1           0        3.321303    3.455446    0.000000
     22          1           0        1.207643    4.677608    0.000000
     23          1           0       -0.916570    3.400775    0.000000
     24          1           0       -1.836924    1.112610    0.859585
     25          1           0       -1.836924    1.112610   -0.859585
 ---------------------------------------------------------------------

 SCF Done:  E(RM062X) =  -539.749369007     A.U. after   16 cycles

 Excitation energies and oscillator strengths:

 Excited State   1:      Singlet-A'     2.7287 eV  454.37 nm  f=0.0280  <S**2>=0.000
      47 -> 48         0.70255
 This state for optimization and/or second-order correction.
 Total Energy, E(TD-HF/TD-DFT) =  -539.649090616
 Copying the excited state density for this state as the 1-particle RhoCI density.

 The electronic state is 1-A'.
 Alpha  occ. eigenvalues --  -10.77667 -10.73511 -10.72999 -10.72463 -10.72397
 Alpha  occ. eigenvalues --  -10.71792 -10.71090 -10.71021 -10.70930 -10.70901
 Alpha  occ. eigenvalues --  -10.70244 -10.69984 -10.69695 -10.69246  -1.16512
 Alpha  occ. eigenvalues --   -1.12538  -1.06931  -1.05843  -1.01340  -1.00432
 Alpha  occ. eigenvalues --   -0.95641  -0.91071  -0.86438  -0.85861  -0.83777
 Alpha  occ. eigenvalues --   -0.78372  -0.76080  -0.74355  -0.69777  -0.69095
 Alpha  occ. eigenvalues --   -0.68555  -0.68124  -0.68121  -0.64817  -0.64368
 Alpha  occ. eigenvalues --   -0.62945  -0.61665  -0.60260  -0.59494  -0.59086
 Alpha  occ. eigenvalues --   -0.56934  -0.55079  -0.54729  -0.52451  -0.46846
 Alpha  occ. eigenvalues --   -0.46150  -0.44200
 Alpha virt. eigenvalues --   -0.26096  -0.14828  -0.13968  -0.12723  -0.11181
 Alpha virt. eigenvalues --   -0.10094  -0.09231  -0.07994  -0.07942  -0.07475
 Alpha virt. eigenvalues --   -0.07206  -0.07138  -0.05648  -0.05586  -0.05344

 Mulliken charges:
               1
     1  C    0.055571
     2  C   -0.441255
     3  C   -0.438595
     4  C   -0.109337
     5  C    0.091998
     6  C   -0.426399
     7  C   -0.368439
     8  C    0.139087
     9  C   -0.361322
    10  C    0.067001
    11  C   -0.640916
    12  C    0.860894
    13  C   -0.634141
    14  C    0.585725
    15  H    0.234856
    16  H    0.257372
    17  H    0.244552
    18  H    0.226240
    19  H    0.190645
    20  H    0.216641
    21  H    0.252371
    22  H    0.255243
    23  H    0.240513
    24  H    0.250848
    25  H    0.250848
 Sum of Mulliken charges =   1.00000

 Dipole moment (field-independent basis, Debye):
    X=              0.2294    Y=              0.0296    Z=             -0.0000  Tot=              0.2313
 Quadrupole moment (field-independent basis, Debye-Ang):
   XX=            -51.3149   YY=            -36.1426   ZZ=            -84.1324
   XY=             10.0585   XZ=              0.0000   YZ=             -0.0000

 Normal termination of Gaussian 16 at Wed Jul 27 14:20:52 2022.
