 Gaussian 16, Revision C.01,
 Gaussian 16:  ES64L-G16RevC.01  3-Jul-2019

 ---------------------------------------------------------------
 #n M062X/6-311++G(d,p) TD(NStates=1) EmpiricalDispersion=GD3 SP
 ---------------------------------------------------------------

 -----
 SP_10
 -----
 Symbolic Z-matrix:
 Charge =  1 Multiplicity = 1

                         Standard orientation:
 ---------------------------------------------------------------------
 Center     Atomic      Atomic             Coordinates (Angstroms)
 Number     Number       Type             X           Y           Z
 ---------------------------------------------------------------------
      1          6           0       -2.378093   -1.525927    0.000000
      2          6           0       -2.328886   -2.908737    0.000000
      3          6           0       -1.100215   -3.576945    0.000000
      4          6           0        0.058463   -2.874489    0.000000
      5          6           0        2.381972    1.469570    0.000000
      6          6           0        2.369574    2.922803    0.000000
      7          6           0        1.180244    3.609807    0.000000
      8          6           0        0.003101    2.853940    0.000000
      9          6           0       -1.267638    0.711177    0.000000
     10          6           0        1.240961   -0.709630    0.000000
     11          6           0       -1.209301   -0.802455    0.000000
     12          6           0        0.025556   -1.449742    0.000000
     13          6           0        0.000000    1.413114    0.000000
     14          6           0        1.235643    0.709448    0.000000
     15          1           0       -3.316684   -0.986563    0.000000
     16          1           0       -3.260221   -3.455799    0.000000
     17          1           0       -1.054472   -4.655793    0.000000
     18          1           0        0.999397   -3.408082    0.000000
     19          1           0        2.179212   -1.247234    0.000000
     20          1           0        3.328859    0.942745    0.000000
     21          1           0        3.304661    3.467094    0.000000
     22          1           0        1.172606    4.689630    0.000000
     23          1           0       -0.941623    3.386202    0.000000
     24          1           0       -1.840014    1.108094    0.859585
     25          1           0       -1.840014    1.108094   -0.859585
 ---------------------------------------------------------------------

 SCF Done:  E(RM062X) =  -539.749283443     A.U. after   16 cycles

 Excitation energies and oscillator strengths:

 Excited State   1:      Singlet-A'     2.6548 eV  467.01 nm  f=0.0233  <S**2>=0.000
      47 -> 48         0.70320
 This state for optimization and/or second-order correction.
 Total Energy, E(TD-HF/TD-DFT) =  -539.651720282
 Copying the excited state density for this state as the 1-particle RhoCI density.

 The electronic state is 1-A'.
 Alpha  occ. eigenvalues --  -10.77658 -10.73356 -10.73171 -10.72685 -10.72166
 Alpha  occ. eigenvalues --  -10.71495 -10.71387 -10.71264 -10.71026 -10.70531
 Alpha  occ. eigenvalues --  -10.70045 -10.69896 -10.69730 -10.69478  -1.16550
 Alpha  occ. eigenvalues --   -1.12536  -1.06887  -1.05838  -1.01376  -1.00555
 Alpha  occ. eigenvalues --   -0.95518  -0.91011  -0.86480  -0.85871  -0.83802
 Alpha  occ. eigenvalues --   -0.78316  -0.76148  -0.74329  -0.69587  -0.69278
 Alpha  occ. eigenvalues --   -0.68498  -0.68158  -0.68098  -0.65020  -0.64453
 Alpha  occ. eigenvalues --   -0.62782  -0.61585  -0.60441  -0.59298  -0.59020
 Alpha  occ. eigenvalues --   -0.57005  -0.55231  -0.54616  -0.52419  -0.47234
 Alpha  occ. eigenvalues --   -0.46147  -0.43845
 Alpha virt. eigenvalues --   -0.26091  -0.14812  -0.13994  -0.12735  -0.11183
 Alpha virt. eigenvalues --   -0.10092  -0.09239  -0.07978  -0.07932  -0.07482
 Alpha virt. eigenvalues --   -0.07207  -0.07139  -0.05651  -0.05580  -0.05343

 Mulliken charges:
               1
     1  C    0.057062
     2  C   -0.431818
     3  C   -0.436563
     4  C   -0.051983
     5  C    0.061733
     6  C   -0.433705
     7  C   -0.382512
     8  C    0.138013
     9  C   -0.343922
    10  C    0.079417
    11  C   -0.649013
    12  C    0.802970
    13  C   -0.623122
    14  C    0.594306
    15  H    0.236084
    16  H    0.259680
    17  H    0.247197
    18  H    0.226569
    19  H    0.189967
    20  H    0.216352
    21  H    0.249695
    22  H    0.253071
    23  H    0.238168
    24  H    0.251177
    25  H    0.251177
 Sum of Mulliken charges =   1.00000

 Dipole moment (field-independent basis, Debye):
    X=             -0.0694    Y=             -0.4963    Z=             -0.0000  Tot=              0.5011
 Quadrupole moment (field-independent basis, Debye-Ang):
   XX=            -51.3165   YY=            -36.0888   ZZ=            -84.1319
   XY=             10.0525   XZ=              0.0000   YZ=             -0.0000

 Normal termination of Gaussian 16 at Wed Jul 27 13:55:01 2022.
