 Gaussian 16, Revision C.01,
 Gaussian 16:  ES64L-G16RevC.01  3-Jul-2019

 ---------------------------------------------------------------
 #n M062X/6-311++G(d,p) TD(NStates=1) EmpiricalDispersion=GD3 SP
 ---------------------------------------------------------------

 -----
 SP_16
 -----
 Symbolic Z-matrix:
 Charge =  1 Multiplicity = 1

                         Standard orientation:
 ---------------------------------------------------------------------
 Center     Atomic      Atomic             Coordinates (Angstroms)
 Number     Number       Type             X           Y           Z
 ---------------------------------------------------------------------
      1          6           0       -2.393838   -1.515135    0.000000
      2          6           0       -2.351368   -2.891078    0.000000
      3          6           0       -1.129376   -3.568131    0.000000
      4          6           0        0.038574   -2.872667    0.000000
      5          6           0        2.393888    1.454234    0.000000
      6          6           0        2.393073    2.903189    0.000000
      7          6           0        1.207761    3.600294    0.000000
      8          6           0        0.020824    2.846370    0.000000
      9          6           0       -1.260878    0.723183    0.000000
     10          6           0        1.243017   -0.705513    0.000000
     11          6           0       -1.206096   -0.800110    0.000000
     12          6           0        0.003337   -1.447897    0.000000
     13          6           0        0.000000    1.417267    0.000000
     14          6           0        1.248658    0.691615    0.000000
     15          1           0       -3.315493   -0.946711    0.000000
     16          1           0       -3.292058   -3.421419    0.000000
     17          1           0       -1.074951   -4.646457    0.000000
     18          1           0        0.964357   -3.432187    0.000000
     19          1           0        2.167869   -1.267039    0.000000
     20          1           0        3.326723    0.900857    0.000000
     21          1           0        3.324001    3.455101    0.000000
     22          1           0        1.219262    4.680847    0.000000
     23          1           0       -0.908066    3.408319    0.000000
     24          1           0       -1.828553    1.127485    0.859585
     25          1           0       -1.828553    1.127485   -0.859585
 ---------------------------------------------------------------------

 SCF Done:  E(RM062X) =  -539.745821556     A.U. after   16 cycles

 Excitation energies and oscillator strengths:

 Excited State   1:      Singlet-A'     2.7005 eV  459.12 nm  f=0.0278  <S**2>=0.000
      47 -> 48         0.70253
 This state for optimization and/or second-order correction.
 Total Energy, E(TD-HF/TD-DFT) =  -539.646581320
 Copying the excited state density for this state as the 1-particle RhoCI density.

 The electronic state is 1-A'.
 Alpha  occ. eigenvalues --  -10.77668 -10.73543 -10.72978 -10.72475 -10.72382
 Alpha  occ. eigenvalues --  -10.71839 -10.71079 -10.71035 -10.70906 -10.70874
 Alpha  occ. eigenvalues --  -10.70278 -10.70026 -10.69660 -10.69194  -1.16536
 Alpha  occ. eigenvalues --   -1.12561  -1.06924  -1.05878  -1.01352  -1.00514
 Alpha  occ. eigenvalues --   -0.95594  -0.91073  -0.86448  -0.85848  -0.83765
 Alpha  occ. eigenvalues --   -0.78361  -0.76098  -0.74334  -0.69813  -0.69084
 Alpha  occ. eigenvalues --   -0.68560  -0.68130  -0.68104  -0.64841  -0.64402
 Alpha  occ. eigenvalues --   -0.62903  -0.61603  -0.60328  -0.59450  -0.59075
 Alpha  occ. eigenvalues --   -0.56949  -0.55040  -0.54693  -0.52453  -0.46933
 Alpha  occ. eigenvalues --   -0.46165  -0.44103
 Alpha virt. eigenvalues --   -0.26099  -0.14869  -0.13938  -0.12706  -0.11182
 Alpha virt. eigenvalues --   -0.10096  -0.09232  -0.07998  -0.07933  -0.07475
 Alpha virt. eigenvalues --   -0.07207  -0.07136  -0.05650  -0.05587  -0.05348

 Mulliken charges:
               1
     1  C    0.049611
     2  C   -0.445322
     3  C   -0.436159
     4  C   -0.131618
     5  C    0.101049
     6  C   -0.423834
     7  C   -0.363201
     8  C    0.147201
     9  C   -0.369368
    10  C    0.058563
    11  C   -0.637984
    12  C    0.893775
    13  C   -0.634665
    14  C    0.571618
    15  H    0.234631
    16  H    0.257625
    17  H    0.243912
    18  H    0.226770
    19  H    0.190731
    20  H    0.215727
    21  H    0.252730
    22  H    0.254994
    23  H    0.240931
    24  H    0.251140
    25  H    0.251140
 Sum of Mulliken charges =   1.00000

 Dipole moment (field-independent basis, Debye):
    X=              0.2276    Y=              0.0274    Z=             -0.0000  Tot=              0.2292
 Quadrupole moment (field-independent basis, Debye-Ang):
   XX=            -51.4256   YY=            -36.0567   ZZ=            -84.1294
   XY=              9.9936   XZ=              0.0000   YZ=             -0.0000

 Normal termination of Gaussian 16 at Wed Jul 27 14:37:04 2022.
