 Gaussian 16, Revision C.01,
 Gaussian 16:  ES64L-G16RevC.01  3-Jul-2019

 ---------------------------------------------------------------
 #n M062X/6-311++G(d,p) TD(NStates=1) EmpiricalDispersion=GD3 SP
 ---------------------------------------------------------------

 ----
 SP_8
 ----
 Symbolic Z-matrix:
 Charge =  1 Multiplicity = 1

                         Standard orientation:
 ---------------------------------------------------------------------
 Center     Atomic      Atomic             Coordinates (Angstroms)
 Number     Number       Type             X           Y           Z
 ---------------------------------------------------------------------
      1          6           0       -2.371067   -1.528851    0.000000
      2          6           0       -2.317822   -2.914190    0.000000
      3          6           0       -1.086231   -3.580374    0.000000
      4          6           0        0.066214   -2.877920    0.000000
      5          6           0        2.375007    1.473994    0.000000
      6          6           0        2.358892    2.932533    0.000000
      7          6           0        1.169402    3.616111    0.000000
      8          6           0       -0.003287    2.858282    0.000000
      9          6           0       -1.269737    0.707422    0.000000
     10          6           0        1.238813   -0.713824    0.000000
     11          6           0       -1.211847   -0.804265    0.000000
     12          6           0        0.033235   -1.451437    0.000000
     13          6           0        0.000000    1.409962    0.000000
     14          6           0        1.230193    0.714957    0.000000
     15          1           0       -3.316184   -1.000993    0.000000
     16          1           0       -3.245832   -3.467209    0.000000
     17          1           0       -1.044982   -4.659469    0.000000
     18          1           0        1.013088   -3.401055    0.000000
     19          1           0        2.181984   -1.242469    0.000000
     20          1           0        3.327461    0.957833    0.000000
     21          1           0        3.296262    3.472955    0.000000
     22          1           0        1.154957    4.695570    0.000000
     23          1           0       -0.954164    3.378830    0.000000
     24          1           0       -1.841585    1.105801    0.859585
     25          1           0       -1.841585    1.105801   -0.859585
 ---------------------------------------------------------------------

 SCF Done:  E(RM062X) =  -539.748171160     A.U. after   16 cycles

 Excitation energies and oscillator strengths:

 Excited State   1:      Singlet-A'     2.6129 eV  474.51 nm  f=0.0212  <S**2>=0.000
      47 -> 48         0.70328
 This state for optimization and/or second-order correction.
 Total Energy, E(TD-HF/TD-DFT) =  -539.652150057
 Copying the excited state density for this state as the 1-particle RhoCI density.

 The electronic state is 1-A'.
 Alpha  occ. eigenvalues --  -10.77629 -10.73526 -10.72994 -10.72784 -10.72041
 Alpha  occ. eigenvalues --  -10.71799 -10.71429 -10.71185 -10.71027 -10.70260
 Alpha  occ. eigenvalues --  -10.69995 -10.69945 -10.69605 -10.69595  -1.16582
 Alpha  occ. eigenvalues --   -1.12533  -1.06875  -1.05867  -1.01377  -1.00615
 Alpha  occ. eigenvalues --   -0.95456  -0.90990  -0.86494  -0.85870  -0.83805
 Alpha  occ. eigenvalues --   -0.78285  -0.76192  -0.74313  -0.69594  -0.69347
 Alpha  occ. eigenvalues --   -0.68438  -0.68127  -0.68086  -0.65198  -0.64425
 Alpha  occ. eigenvalues --   -0.62685  -0.61526  -0.60537  -0.59201  -0.59051
 Alpha  occ. eigenvalues --   -0.57002  -0.55316  -0.54492  -0.52411  -0.47456
 Alpha  occ. eigenvalues --   -0.46149  -0.43641
 Alpha virt. eigenvalues --   -0.26095  -0.14801  -0.13998  -0.12735  -0.11187
 Alpha virt. eigenvalues --   -0.10093  -0.09249  -0.07967  -0.07918  -0.07486
 Alpha virt. eigenvalues --   -0.07209  -0.07136  -0.05652  -0.05576  -0.05347

 Mulliken charges:
               1
     1  C    0.056978
     2  C   -0.425938
     3  C   -0.435120
     4  C   -0.026636
     5  C    0.044778
     6  C   -0.437315
     7  C   -0.389230
     8  C    0.137372
     9  C   -0.339896
    10  C    0.082279
    11  C   -0.649672
    12  C    0.780652
    13  C   -0.617492
    14  C    0.600239
    15  H    0.236891
    16  H    0.260833
    17  H    0.248544
    18  H    0.226790
    19  H    0.189590
    20  H    0.216301
    21  H    0.248375
    22  H    0.251989
    23  H    0.237128
    24  H    0.251280
    25  H    0.251280
 Sum of Mulliken charges =   1.00000

 Dipole moment (field-independent basis, Debye):
    X=             -0.2182    Y=             -0.7585    Z=              0.0000  Tot=              0.7893
 Quadrupole moment (field-independent basis, Debye-Ang):
   XX=            -51.3156   YY=            -36.0423   ZZ=            -84.1287
   XY=             10.0629   XZ=              0.0000   YZ=              0.0000

 Normal termination of Gaussian 16 at Wed Jul 27 13:42:16 2022.
