 Gaussian 16, Revision C.01,
 Gaussian 16:  ES64L-G16RevC.01  3-Jul-2019

 ---------------------------------------------------------------
 #n M062X/6-311++G(d,p) TD(NStates=1) EmpiricalDispersion=GD3 SP
 ---------------------------------------------------------------

 -----
 SP_18
 -----
 Symbolic Z-matrix:
 Charge =  1 Multiplicity = 1

                         Standard orientation:
 ---------------------------------------------------------------------
 Center     Atomic      Atomic             Coordinates (Angstroms)
 Number     Number       Type             X           Y           Z
 ---------------------------------------------------------------------
      1          6           0       -2.403421   -1.513236    0.000000
      2          6           0       -2.367455   -2.886214    0.000000
      3          6           0       -1.149379   -3.563728    0.000000
      4          6           0        0.029511   -2.864861    0.000000
      5          6           0        2.405176    1.450864    0.000000
      6          6           0        2.407546    2.888626    0.000000
      7          6           0        1.220633    3.589175    0.000000
      8          6           0        0.027527    2.839214    0.000000
      9          6           0       -1.258990    0.726416    0.000000
     10          6           0        1.247649   -0.697104    0.000000
     11          6           0       -1.201271   -0.797002    0.000000
     12          6           0       -0.004563   -1.444356    0.000000
     13          6           0        0.000000    1.423156    0.000000
     14          6           0        1.255563    0.686692    0.000000
     15          1           0       -3.316875   -0.930886    0.000000
     16          1           0       -3.311551   -3.410000    0.000000
     17          1           0       -1.087962   -4.641933    0.000000
     18          1           0        0.947709   -3.437273    0.000000
     19          1           0        2.166643   -1.268822    0.000000
     20          1           0        3.330799    0.884374    0.000000
     21          1           0        3.335003    3.446599    0.000000
     22          1           0        1.239505    4.670062    0.000000
     23          1           0       -0.893536    3.415310    0.000000
     24          1           0       -1.830443    1.123359    0.859585
     25          1           0       -1.830443    1.123359   -0.859585
 ---------------------------------------------------------------------

 SCF Done:  E(RM062X) =  -539.745806717     A.U. after   16 cycles

 Excitation energies and oscillator strengths:

 Excited State   1:      Singlet-A'     2.7592 eV  449.35 nm  f=0.0314  <S**2>=0.000
      47 -> 48         0.70107
 This state for optimization and/or second-order correction.
 Total Energy, E(TD-HF/TD-DFT) =  -539.644408330
 Copying the excited state density for this state as the 1-particle RhoCI density.

 The electronic state is 1-A'.
 Alpha  occ. eigenvalues --  -10.77630 -10.73766 -10.72707 -10.72542 -10.72283
 Alpha  occ. eigenvalues --  -10.72121 -10.71514 -10.71019 -10.70656 -10.70471
 Alpha  occ. eigenvalues --  -10.70409 -10.70198 -10.69527 -10.69051  -1.16516
 Alpha  occ. eigenvalues --   -1.12546  -1.06983  -1.05917  -1.01291  -1.00371
 Alpha  occ. eigenvalues --   -0.95710  -0.91139  -0.86398  -0.85834  -0.83735
 Alpha  occ. eigenvalues --   -0.78406  -0.76054  -0.74359  -0.70011  -0.69022
 Alpha  occ. eigenvalues --   -0.68565  -0.68150  -0.67973  -0.64862  -0.64163
 Alpha  occ. eigenvalues --   -0.62992  -0.61672  -0.60180  -0.59609  -0.59230
 Alpha  occ. eigenvalues --   -0.56838  -0.55049  -0.54580  -0.52492  -0.46664
 Alpha  occ. eigenvalues --   -0.46164  -0.44353
 Alpha virt. eigenvalues --   -0.26115  -0.14854  -0.13918  -0.12694  -0.11185
 Alpha virt. eigenvalues --   -0.10100  -0.09237  -0.08005  -0.07927  -0.07470
 Alpha virt. eigenvalues --   -0.07208  -0.07131  -0.05647  -0.05589  -0.05354

 Mulliken charges:
               1
     1  C    0.047425
     2  C   -0.446044
     3  C   -0.437433
     4  C   -0.169773
     5  C    0.114580
     6  C   -0.419242
     7  C   -0.354259
     8  C    0.143137
     9  C   -0.389059
    10  C    0.044330
    11  C   -0.619339
    12  C    0.936533
    13  C   -0.644572
    14  C    0.571991
    15  H    0.234274
    16  H    0.255795
    17  H    0.242311
    18  H    0.226424
    19  H    0.191215
    20  H    0.216526
    21  H    0.254583
    22  H    0.256739
    23  H    0.242683
    24  H    0.250587
    25  H    0.250587
 Sum of Mulliken charges =   1.00000

 Dipole moment (field-independent basis, Debye):
    X=              0.4526    Y=              0.4205    Z=              0.0000  Tot=              0.6177
 Quadrupole moment (field-independent basis, Debye-Ang):
   XX=            -51.3660   YY=            -36.1074   ZZ=            -84.1261
   XY=             10.0546   XZ=             -0.0000   YZ=             -0.0000

 Normal termination of Gaussian 16 at Wed Jul 27 14:49:03 2022.
