 Gaussian 16, Revision C.01,
 Gaussian 16:  ES64L-G16RevC.01  3-Jul-2019

 ---------------------------------------------------------------
 #n M062X/6-311++G(d,p) TD(NStates=1) EmpiricalDispersion=GD3 SP
 ---------------------------------------------------------------

 ----
 SP_6
 ----
 Symbolic Z-matrix:
 Charge =  1 Multiplicity = 1

                         Standard orientation:
 ---------------------------------------------------------------------
 Center     Atomic      Atomic             Coordinates (Angstroms)
 Number     Number       Type             X           Y           Z
 ---------------------------------------------------------------------
      1          6           0       -2.379843   -1.537752    0.000000
      2          6           0       -2.338333   -2.923393    0.000000
      3          6           0       -1.110106   -3.578983    0.000000
      4          6           0        0.064251   -2.855655    0.000000
      5          6           0        2.394649    1.484629    0.000000
      6          6           0        2.373205    2.913366    0.000000
      7          6           0        1.173035    3.593903    0.000000
      8          6           0       -0.005885    2.846041    0.000000
      9          6           0       -1.273076    0.701195    0.000000
     10          6           0        1.250205   -0.692652    0.000000
     11          6           0       -1.201072   -0.797147    0.000000
     12          6           0        0.038677   -1.442899    0.000000
     13          6           0        0.000000    1.422888    0.000000
     14          6           0        1.234286    0.724186    0.000000
     15          1           0       -3.322825   -1.005578    0.000000
     16          1           0       -3.264423   -3.478787    0.000000
     17          1           0       -1.058828   -4.658068    0.000000
     18          1           0        1.008427   -3.384165    0.000000
     19          1           0        2.193635   -1.220766    0.000000
     20          1           0        3.344063    0.963277    0.000000
     21          1           0        3.305075    3.462171    0.000000
     22          1           0        1.155551    4.673623    0.000000
     23          1           0       -0.954286    3.370723    0.000000
     24          1           0       -1.863178    1.065598    0.859585
     25          1           0       -1.863178    1.065598   -0.859585
 ---------------------------------------------------------------------

 SCF Done:  E(RM062X) =  -539.757143676     A.U. after   15 cycles

 Excitation energies and oscillator strengths:

 Excited State   1:      Singlet-A'     2.7722 eV  447.24 nm  f=0.0266  <S**2>=0.000
      47 -> 48         0.70344
 This state for optimization and/or second-order correction.
 Total Energy, E(TD-HF/TD-DFT) =  -539.655265990
 Copying the excited state density for this state as the 1-particle RhoCI density.

 The electronic state is 1-A'.
 Alpha  occ. eigenvalues --  -10.77666 -10.73250 -10.73244 -10.72539 -10.72329
 Alpha  occ. eigenvalues --  -10.71449 -10.71269 -10.71177 -10.70992 -10.70834
 Alpha  occ. eigenvalues --  -10.70043 -10.69900 -10.69728 -10.69518  -1.16470
 Alpha  occ. eigenvalues --   -1.12487  -1.06931  -1.05760  -1.01328  -1.00289
 Alpha  occ. eigenvalues --   -0.95711  -0.91047  -0.86433  -0.85893  -0.83811
 Alpha  occ. eigenvalues --   -0.78380  -0.76057  -0.74393  -0.69582  -0.69234
 Alpha  occ. eigenvalues --   -0.68512  -0.68183  -0.68103  -0.64796  -0.64347
 Alpha  occ. eigenvalues --   -0.62990  -0.61788  -0.60159  -0.59540  -0.59073
 Alpha  occ. eigenvalues --   -0.56927  -0.55206  -0.54788  -0.52434  -0.46777
 Alpha  occ. eigenvalues --   -0.46100  -0.44315
 Alpha virt. eigenvalues --   -0.26089  -0.14719  -0.14058  -0.12763  -0.11179
 Alpha virt. eigenvalues --   -0.10088  -0.09232  -0.07983  -0.07961  -0.07477
 Alpha virt. eigenvalues --   -0.07204  -0.07143  -0.05645  -0.05581  -0.05335

 Mulliken charges:
               1
     1  C    0.072565
     2  C   -0.422153
     3  C   -0.440322
     4  C   -0.025246
     5  C    0.047047
     6  C   -0.436521
     7  C   -0.391475
     8  C    0.115977
     9  C   -0.337895
    10  C    0.088554
    11  C   -0.643849
    12  C    0.751467
    13  C   -0.630710
    14  C    0.633158
    15  H    0.236411
    16  H    0.257759
    17  H    0.247688
    18  H    0.224569
    19  H    0.190325
    20  H    0.219119
    21  H    0.249837
    22  H    0.254879
    23  H    0.238139
    24  H    0.250338
    25  H    0.250338
 Sum of Mulliken charges =   1.00000

 Dipole moment (field-independent basis, Debye):
    X=              0.0870    Y=             -0.2288    Z=             -0.0000  Tot=              0.2448
 Quadrupole moment (field-independent basis, Debye-Ang):
   XX=            -50.9992   YY=            -36.3935   ZZ=            -84.1392
   XY=             10.2456   XZ=              0.0000   YZ=             -0.0000

 Normal termination of Gaussian 16 at Wed Jul 27 13:20:36 2022.
