 Gaussian 16, Revision C.01,
 Gaussian 16:  ES64L-G16RevC.01  3-Jul-2019

 ---------------------------------------------------------------
 #n M062X/6-311++G(d,p) TD(NStates=1) EmpiricalDispersion=GD3 SP
 ---------------------------------------------------------------

 ------
 SP_100
 ------
 Symbolic Z-matrix:
 Charge =  1 Multiplicity = 1

                         Standard orientation:
 ---------------------------------------------------------------------
 Center     Atomic      Atomic             Coordinates (Angstroms)
 Number     Number       Type             X           Y           Z
 ---------------------------------------------------------------------
      1          6           0        2.493310   -1.360463    0.001393
      2          6           0        3.690784   -0.672093    0.015220
      3          6           0        3.664731    0.713836    0.015905
      4          6           0        2.449350    1.407831   -0.005134
      5          6           0       -2.449662    1.407632   -0.005621
      6          6           0       -3.665791    0.713532    0.015627
      7          6           0       -3.691082   -0.672404    0.015286
      8          6           0       -2.493800   -1.360690    0.002696
      9          6           0        0.002260   -1.453409   -0.006581
     10          6           0       -0.000155    1.429555   -0.018291
     11          6           0        1.273585   -0.676874   -0.014884
     12          6           0        1.235793    0.730993   -0.005560
     13          6           0       -1.273475   -0.676979   -0.015039
     14          6           0       -1.235549    0.730898   -0.006256
     15          1           0        2.488524   -2.443395   -0.027299
     16          1           0        4.627802   -1.211711    0.008411
     17          1           0        4.609260    1.272491    0.012289
     18          1           0        2.454097    2.490091    0.021799
     19          1           0       -0.000151    2.510500   -0.001176
     20          1           0       -2.454453    2.489897    0.020911
     21          1           0       -4.610614    1.272114    0.011484
     22          1           0       -4.628454   -1.212101    0.008452
     23          1           0       -2.488969   -2.443625   -0.025696
     24          1           0        0.000483   -2.157019    0.878647
     25          1           0        0.000688   -2.135434   -0.840388
 ---------------------------------------------------------------------

 SCF Done:  E(RM062X) =  -539.758396017     A.U. after   15 cycles

 Excitation energies and oscillator strengths:

 Excited State   1:      Singlet-A      2.8423 eV  436.21 nm  f=0.0298  <S**2>=0.000
      47 -> 48         0.70423
 This state for optimization and/or second-order correction.
 Total Energy, E(TD-HF/TD-DFT) =  -539.653944162
 Copying the excited state density for this state as the 1-particle RhoCI density.

 The electronic state is 1-A.
 Alpha  occ. eigenvalues --  -10.77681 -10.73212 -10.73184 -10.72316 -10.72314
 Alpha  occ. eigenvalues --  -10.71222 -10.71207 -10.70972 -10.70916 -10.70911
 Alpha  occ. eigenvalues --  -10.69816 -10.69805 -10.69694 -10.69680  -1.16548
 Alpha  occ. eigenvalues --   -1.12780  -1.07119  -1.05624  -1.01638  -1.00122
 Alpha  occ. eigenvalues --   -0.95901  -0.91023  -0.86440  -0.85959  -0.83828
 Alpha  occ. eigenvalues --   -0.78434  -0.76040  -0.74480  -0.69563  -0.69226
 Alpha  occ. eigenvalues --   -0.68511  -0.68071  -0.67891  -0.64976  -0.64488
 Alpha  occ. eigenvalues --   -0.62846  -0.61658  -0.60086  -0.59905  -0.59002
 Alpha  occ. eigenvalues --   -0.56868  -0.55133  -0.54713  -0.52562  -0.46865
 Alpha  occ. eigenvalues --   -0.46022  -0.44627
 Alpha virt. eigenvalues --   -0.26124  -0.14528  -0.14062  -0.12599  -0.11183
 Alpha virt. eigenvalues --   -0.10098  -0.09253  -0.08053  -0.07941  -0.07485
 Alpha virt. eigenvalues --   -0.07220  -0.07110  -0.05638  -0.05581  -0.05306

 Mulliken charges:
               1
     1  C    0.090199
     2  C   -0.417006
     3  C   -0.441901
     4  C    0.052122
     5  C    0.051539
     6  C   -0.441803
     7  C   -0.415956
     8  C    0.090765
     9  C   -0.339698
    10  C    0.098749
    11  C   -0.576603
    12  C    0.602698
    13  C   -0.572657
    14  C    0.602687
    15  H    0.236169
    16  H    0.255607
    17  H    0.253637
    18  H    0.220239
    19  H    0.190628
    20  H    0.220284
    21  H    0.253741
    22  H    0.255741
    23  H    0.236032
    24  H    0.251172
    25  H    0.243614
 Sum of Mulliken charges =   1.00000

 Dipole moment (field-independent basis, Debye):
    X=             -0.0025    Y=              0.1802    Z=             -0.0008  Tot=              0.1802
 Quadrupole moment (field-independent basis, Debye-Ang):
   XX=            -31.3769   YY=            -56.2624   ZZ=            -84.0454
   XY=             -0.0014   XZ=              0.0024   YZ=              0.1442

 Normal termination of Gaussian 16 at Thu Jul 28 16:28:24 2022.
