 Gaussian 16, Revision C.01,
 Gaussian 16:  ES64L-G16RevC.01  3-Jul-2019

 ---------------------------------------------------------------
 #n M062X/6-311++G(d,p) TD(NStates=1) EmpiricalDispersion=GD3 SP
 ---------------------------------------------------------------

 ------
 SP_-50
 ------
 Symbolic Z-matrix:
 Charge =  1 Multiplicity = 1

                         Standard orientation:
 ---------------------------------------------------------------------
 Center     Atomic      Atomic             Coordinates (Angstroms)
 Number     Number       Type             X           Y           Z
 ---------------------------------------------------------------------
      1          6           0        2.494232   -1.360939    0.003945
      2          6           0        3.695051   -0.672728    0.010294
      3          6           0        3.673581    0.713151    0.009979
      4          6           0        2.454683    1.407219   -0.004517
      5          6           0       -2.453429    1.408029   -0.002571
      6          6           0       -3.669341    0.714378    0.011090
      7          6           0       -3.693866   -0.671482    0.010027
      8          6           0       -2.492281   -1.360053   -0.001271
      9          6           0       -0.009043   -1.453384   -0.004528
     10          6           0        0.000627    1.429352   -0.012153
     11          6           0        1.269487   -0.677214   -0.010291
     12          6           0        1.235786    0.730671   -0.005305
     13          6           0       -1.269923   -0.676792   -0.009676
     14          6           0       -1.236754    0.731063   -0.002523
     15          1           0        2.489411   -2.444033   -0.014508
     16          1           0        4.632305   -1.212566    0.005684
     17          1           0        4.612422    1.271566    0.006358
     18          1           0        2.459413    2.489631    0.012529
     19          1           0        0.000610    2.510370   -0.000716
     20          1           0       -2.457986    2.490428    0.016081
     21          1           0       -4.607001    1.273090    0.009566
     22          1           0       -4.629702   -1.211005    0.005513
     23          1           0       -2.487634   -2.443139   -0.020928
     24          1           0       -0.001939   -2.155765    0.872242
     25          1           0       -0.002758   -2.136199   -0.846822
 ---------------------------------------------------------------------

 SCF Done:  E(RM062X) =  -539.759394520     A.U. after   15 cycles

 Excitation energies and oscillator strengths:

 Excited State   1:      Singlet-A      2.8367 eV  437.08 nm  f=0.0294  <S**2>=0.000
      47 -> 48         0.70424
 This state for optimization and/or second-order correction.
 Total Energy, E(TD-HF/TD-DFT) =  -539.655148509
 Copying the excited state density for this state as the 1-particle RhoCI density.

 The electronic state is 1-A.
 Alpha  occ. eigenvalues --  -10.77675 -10.73267 -10.73155 -10.72357 -10.72351
 Alpha  occ. eigenvalues --  -10.71295 -10.71236 -10.70974 -10.70953 -10.70934
 Alpha  occ. eigenvalues --  -10.69885 -10.69842 -10.69694 -10.69640  -1.16512
 Alpha  occ. eigenvalues --   -1.12676  -1.07060  -1.05664  -1.01526  -1.00146
 Alpha  occ. eigenvalues --   -0.95862  -0.91035  -0.86433  -0.85938  -0.83824
 Alpha  occ. eigenvalues --   -0.78420  -0.76038  -0.74460  -0.69563  -0.69224
 Alpha  occ. eigenvalues --   -0.68500  -0.68117  -0.67971  -0.64897  -0.64420
 Alpha  occ. eigenvalues --   -0.62932  -0.61723  -0.60065  -0.59830  -0.59034
 Alpha  occ. eigenvalues --   -0.56876  -0.55168  -0.54749  -0.52520  -0.46782
 Alpha  occ. eigenvalues --   -0.46038  -0.44587
 Alpha virt. eigenvalues --   -0.26111  -0.14571  -0.14073  -0.12655  -0.11181
 Alpha virt. eigenvalues --   -0.10093  -0.09245  -0.08028  -0.07949  -0.07482
 Alpha virt. eigenvalues --   -0.07210  -0.07126  -0.05640  -0.05581  -0.05314

 Mulliken charges:
               1
     1  C    0.095016
     2  C   -0.412544
     3  C   -0.441620
     4  C    0.034014
     5  C    0.034797
     6  C   -0.442193
     7  C   -0.417093
     8  C    0.092001
     9  C   -0.335571
    10  C    0.100487
    11  C   -0.594072
    12  C    0.637650
    13  C   -0.609107
    14  C    0.639420
    15  H    0.236410
    16  H    0.256129
    17  H    0.252416
    18  H    0.221033
    19  H    0.190872
    20  H    0.220876
    21  H    0.251937
    22  H    0.255664
    23  H    0.236839
    24  H    0.250620
    25  H    0.246021
 Sum of Mulliken charges =   1.00000

 Dipole moment (field-independent basis, Debye):
    X=              0.0103    Y=              0.1830    Z=             -0.0009  Tot=              0.1832
 Quadrupole moment (field-independent basis, Debye-Ang):
   XX=            -31.2895   YY=            -56.2627   ZZ=            -84.0773
   XY=              0.0057   XZ=             -0.0098   YZ=              0.0947

 Normal termination of Gaussian 16 at Thu Jul 28 14:16:17 2022.
