 Gaussian 16, Revision C.01,
 Gaussian 16:  ES64L-G16RevC.01  3-Jul-2019

 ---------------------------------------------------------------
 #n M062X/6-311++G(d,p) TD(NStates=1) EmpiricalDispersion=GD3 SP
 ---------------------------------------------------------------

 ------
 SP_-75
 ------
 Symbolic Z-matrix:
 Charge =  1 Multiplicity = 1

                         Standard orientation:
 ---------------------------------------------------------------------
 Center     Atomic      Atomic             Coordinates (Angstroms)
 Number     Number       Type             X           Y           Z
 ---------------------------------------------------------------------
      1          6           0        2.494202   -1.360960    0.003929
      2          6           0        3.696885   -0.672756    0.007768
      3          6           0        3.676946    0.713101    0.007284
      4          6           0        2.457039    1.407128   -0.003740
      5          6           0       -2.455623    1.408045   -0.001550
      6          6           0       -3.672177    0.714485    0.008533
      7          6           0       -3.695557   -0.671353    0.007466
      8          6           0       -2.492012   -1.359976   -0.001941
      9          6           0       -0.010175   -1.453376   -0.003440
     10          6           0        0.000709    1.429281   -0.009101
     11          6           0        1.267548   -0.677268   -0.007834
     12          6           0        1.236027    0.730616   -0.004491
     13          6           0       -1.268037   -0.676792   -0.007147
     14          6           0       -1.237113    0.731064   -0.001363
     15          1           0        2.489409   -2.444108   -0.009693
     16          1           0        4.633903   -1.212622    0.004290
     17          1           0        4.612649    1.271475    0.004181
     18          1           0        2.461716    2.489589    0.008754
     19          1           0        0.000689    2.510324   -0.000515
     20          1           0       -2.460108    2.490495    0.012748
     21          1           0       -4.606549    1.273198    0.007785
     22          1           0       -4.630979   -1.210865    0.004093
     23          1           0       -2.487412   -2.443117   -0.016919
     24          1           0       -0.002186   -2.154066    0.869068
     25          1           0       -0.003107   -2.137728   -0.850031
 ---------------------------------------------------------------------

 SCF Done:  E(RM062X) =  -539.759758692     A.U. after   15 cycles

 Excitation energies and oscillator strengths:

 Excited State   1:      Singlet-A      2.8335 eV  437.56 nm  f=0.0293  <S**2>=0.000
      47 -> 48         0.70424
 This state for optimization and/or second-order correction.
 Total Energy, E(TD-HF/TD-DFT) =  -539.655627795
 Copying the excited state density for this state as the 1-particle RhoCI density.

 The electronic state is 1-A.
 Alpha  occ. eigenvalues --  -10.77672 -10.73280 -10.73155 -10.72378 -10.72371
 Alpha  occ. eigenvalues --  -10.71324 -10.71257 -10.70976 -10.70969 -10.70948
 Alpha  occ. eigenvalues --  -10.69915 -10.69866 -10.69687 -10.69627  -1.16495
 Alpha  occ. eigenvalues --   -1.12623  -1.07030  -1.05683  -1.01472  -1.00157
 Alpha  occ. eigenvalues --   -0.95842  -0.91040  -0.86430  -0.85928  -0.83823
 Alpha  occ. eigenvalues --   -0.78414  -0.76037  -0.74449  -0.69562  -0.69226
 Alpha  occ. eigenvalues --   -0.68496  -0.68138  -0.68010  -0.64857  -0.64387
 Alpha  occ. eigenvalues --   -0.62970  -0.61757  -0.60052  -0.59792  -0.59049
 Alpha  occ. eigenvalues --   -0.56881  -0.55184  -0.54768  -0.52500  -0.46741
 Alpha  occ. eigenvalues --   -0.46044  -0.44567
 Alpha virt. eigenvalues --   -0.26105  -0.14593  -0.14079  -0.12683  -0.11181
 Alpha virt. eigenvalues --   -0.10091  -0.09242  -0.08016  -0.07955  -0.07481
 Alpha virt. eigenvalues --   -0.07207  -0.07132  -0.05641  -0.05581  -0.05319

 Mulliken charges:
               1
     1  C    0.096400
     2  C   -0.410506
     3  C   -0.441128
     4  C    0.026417
     5  C    0.026530
     6  C   -0.441858
     7  C   -0.415862
     8  C    0.092680
     9  C   -0.335818
    10  C    0.099274
    11  C   -0.605366
    12  C    0.654160
    13  C   -0.621523
    14  C    0.657125
    15  H    0.236665
    16  H    0.256239
    17  H    0.251671
    18  H    0.221337
    19  H    0.190877
    20  H    0.221175
    21  H    0.251099
    22  H    0.255757
    23  H    0.237086
    24  H    0.250441
    25  H    0.247128
 Sum of Mulliken charges =   1.00000

 Dipole moment (field-independent basis, Debye):
    X=              0.0116    Y=              0.1842    Z=             -0.0007  Tot=              0.1846
 Quadrupole moment (field-independent basis, Debye-Ang):
   XX=            -31.2461   YY=            -56.2628   ZZ=            -84.0934
   XY=              0.0065   XZ=             -0.0110   YZ=              0.0705

 Normal termination of Gaussian 16 at Thu Jul 28 13:55:17 2022.
