 Gaussian 16, Revision C.01,
 Gaussian 16:  ES64L-G16RevC.01  3-Jul-2019

 ---------------------------------------------------------------
 #n M062X/6-311++G(d,p) TD(NStates=1) EmpiricalDispersion=GD3 SP
 ---------------------------------------------------------------

 ----
 SP_0
 ----
 Symbolic Z-matrix:
 Charge =  1 Multiplicity = 1

                         Standard orientation:
 ---------------------------------------------------------------------
 Center     Atomic      Atomic             Coordinates (Angstroms)
 Number     Number       Type             X           Y           Z
 ---------------------------------------------------------------------
      1          6           0        2.493743   -1.360717    0.002653
      2          6           0        3.694754   -0.672416    0.010231
      3          6           0        3.672521    0.713458    0.010247
      4          6           0        2.454370    1.407422   -0.004049
      5          6           0       -2.453742    1.407826   -0.003075
      6          6           0       -3.670401    0.714072    0.010803
      7          6           0       -3.694162   -0.671793    0.010098
      8          6           0       -2.492768   -1.360274    0.000045
      9          6           0       -0.004521   -1.453386   -0.004469
     10          6           0        0.000313    1.429352   -0.012171
     11          6           0        1.269596   -0.677109   -0.010133
     12          6           0        1.236029    0.730769   -0.004620
     13          6           0       -1.269814   -0.676898   -0.009826
     14          6           0       -1.236513    0.730965   -0.003229
     15          1           0        2.488966   -2.443810   -0.016090
     16          1           0        4.631654   -1.212176    0.005652
     17          1           0        4.611067    1.271947    0.007144
     18          1           0        2.459057    2.489831    0.013388
     19          1           0        0.000305    2.510370   -0.000746
     20          1           0       -2.458343    2.490229    0.015163
     21          1           0       -4.608357    1.272709    0.008748
     22          1           0       -4.630352   -1.211395    0.005566
     23          1           0       -2.488077   -2.443362   -0.019300
     24          1           0       -0.000969   -2.154656    0.872271
     25          1           0       -0.001379   -2.137309   -0.846813
 ---------------------------------------------------------------------

 SCF Done:  E(RM062X) =  -539.759491576     A.U. after   15 cycles

 Excitation energies and oscillator strengths:

 Excited State   1:      Singlet-A      2.8367 eV  437.07 nm  f=0.0294  <S**2>=0.000
      47 -> 48         0.70424
 This state for optimization and/or second-order correction.
 Total Energy, E(TD-HF/TD-DFT) =  -539.655243644
 Copying the excited state density for this state as the 1-particle RhoCI density.

 The electronic state is 1-A.
 Alpha  occ. eigenvalues --  -10.77675 -10.73239 -10.73183 -10.72356 -10.72353
 Alpha  occ. eigenvalues --  -10.71280 -10.71250 -10.70975 -10.70948 -10.70939
 Alpha  occ. eigenvalues --  -10.69874 -10.69853 -10.69680 -10.69653  -1.16512
 Alpha  occ. eigenvalues --   -1.12676  -1.07060  -1.05662  -1.01526  -1.00147
 Alpha  occ. eigenvalues --   -0.95861  -0.91035  -0.86432  -0.85939  -0.83824
 Alpha  occ. eigenvalues --   -0.78420  -0.76038  -0.74460  -0.69561  -0.69224
 Alpha  occ. eigenvalues --   -0.68500  -0.68117  -0.67973  -0.64897  -0.64420
 Alpha  occ. eigenvalues --   -0.62928  -0.61727  -0.60064  -0.59831  -0.59034
 Alpha  occ. eigenvalues --   -0.56876  -0.55163  -0.54757  -0.52520  -0.46782
 Alpha  occ. eigenvalues --   -0.46038  -0.44588
 Alpha virt. eigenvalues --   -0.26111  -0.14570  -0.14073  -0.12654  -0.11181
 Alpha virt. eigenvalues --   -0.10093  -0.09245  -0.08028  -0.07950  -0.07482
 Alpha virt. eigenvalues --   -0.07211  -0.07125  -0.05640  -0.05581  -0.05314

 Mulliken charges:
               1
     1  C    0.094408
     2  C   -0.413759
     3  C   -0.441811
     4  C    0.034364
     5  C    0.034755
     6  C   -0.442098
     7  C   -0.416036
     8  C    0.092888
     9  C   -0.335528
    10  C    0.100598
    11  C   -0.598033
    12  C    0.638044
    13  C   -0.605555
    14  C    0.638930
    15  H    0.236520
    16  H    0.256011
    17  H    0.252298
    18  H    0.220995
    19  H    0.190861
    20  H    0.220916
    21  H    0.252058
    22  H    0.255779
    23  H    0.236735
    24  H    0.250746
    25  H    0.245914
 Sum of Mulliken charges =   1.00000

 Dipole moment (field-independent basis, Debye):
    X=              0.0051    Y=              0.1830    Z=             -0.0006  Tot=              0.1831
 Quadrupole moment (field-independent basis, Debye-Ang):
   XX=            -31.2896   YY=            -56.2629   ZZ=            -84.0774
   XY=              0.0028   XZ=             -0.0049   YZ=              0.0954

 Normal termination of Gaussian 16 at Thu Jul 28 15:01:40 2022.
