 Gaussian 16, Revision C.01,
 Gaussian 16:  ES64L-G16RevC.01  3-Jul-2019

 ---------------------------------------------------------------
 #n M062X/6-311++G(d,p) TD(NStates=1) EmpiricalDispersion=GD3 SP
 ---------------------------------------------------------------

 ------
 SP_100
 ------
 Symbolic Z-matrix:
 Charge =  1 Multiplicity = 1

                         Standard orientation:
 ---------------------------------------------------------------------
 Center     Atomic      Atomic             Coordinates (Angstroms)
 Number     Number       Type             X           Y           Z
 ---------------------------------------------------------------------
      1          6           0        2.492497   -1.360194   -0.000597
      2          6           0        3.695852   -0.671664    0.007547
      3          6           0        3.673236    0.714178    0.008219
      4          6           0        2.455938    1.407841   -0.002099
      5          6           0       -2.456724    1.407332   -0.003316
      6          6           0       -3.675886    0.713409    0.007525
      7          6           0       -3.696590   -0.672444    0.007715
      8          6           0       -2.493714   -1.360741    0.002664
      9          6           0        0.005652   -1.453379   -0.003227
     10          6           0       -0.000394    1.429280   -0.009165
     11          6           0        1.267928   -0.676898   -0.007286
     12          6           0        1.236872    0.730964   -0.002096
     13          6           0       -1.267656   -0.677163   -0.007668
     14          6           0       -1.236269    0.730715   -0.003834
     15          1           0        2.487854   -2.443338   -0.015234
     16          1           0        4.631628   -1.211255    0.004171
     17          1           0        4.607905    1.272816    0.006927
     18          1           0        2.460466    2.490295    0.011758
     19          1           0       -0.000383    2.510325   -0.000619
     20          1           0       -2.461359    2.489791    0.009538
     21          1           0       -4.611294    1.271859    0.004925
     22          1           0       -4.633253   -1.212231    0.004281
     23          1           0       -2.488964   -2.443888   -0.011219
     24          1           0        0.001214   -2.150184    0.869161
     25          1           0        0.001726   -2.141609   -0.849990
 ---------------------------------------------------------------------

 SCF Done:  E(RM062X) =  -539.759918267     A.U. after   15 cycles

 Excitation energies and oscillator strengths:

 Excited State   1:      Singlet-A      2.8336 eV  437.55 nm  f=0.0293  <S**2>=0.000
      47 -> 48         0.70425
 This state for optimization and/or second-order correction.
 Total Energy, E(TD-HF/TD-DFT) =  -539.655784532
 Copying the excited state density for this state as the 1-particle RhoCI density.

 The electronic state is 1-A.
 Alpha  occ. eigenvalues --  -10.77672 -10.73253 -10.73183 -10.72376 -10.72372
 Alpha  occ. eigenvalues --  -10.71309 -10.71272 -10.70977 -10.70965 -10.70953
 Alpha  occ. eigenvalues --  -10.69904 -10.69877 -10.69674 -10.69640  -1.16494
 Alpha  occ. eigenvalues --   -1.12623  -1.07030  -1.05679  -1.01472  -1.00158
 Alpha  occ. eigenvalues --   -0.95841  -0.91040  -0.86428  -0.85930  -0.83822
 Alpha  occ. eigenvalues --   -0.78414  -0.76036  -0.74449  -0.69559  -0.69226
 Alpha  occ. eigenvalues --   -0.68493  -0.68138  -0.68014  -0.64857  -0.64386
 Alpha  occ. eigenvalues --   -0.62966  -0.61761  -0.60052  -0.59793  -0.59049
 Alpha  occ. eigenvalues --   -0.56881  -0.55178  -0.54777  -0.52500  -0.46741
 Alpha  occ. eigenvalues --   -0.46044  -0.44567
 Alpha virt. eigenvalues --   -0.26104  -0.14593  -0.14079  -0.12683  -0.11181
 Alpha virt. eigenvalues --   -0.10091  -0.09242  -0.08015  -0.07956  -0.07481
 Alpha virt. eigenvalues --   -0.07209  -0.07130  -0.05641  -0.05581  -0.05318

 Mulliken charges:
               1
     1  C    0.093734
     2  C   -0.414736
     3  C   -0.441776
     4  C    0.026803
     5  C    0.026740
     6  C   -0.441367
     7  C   -0.411762
     8  C    0.095864
     9  C   -0.335942
    10  C    0.099482
    11  C   -0.618256
    12  C    0.656296
    13  C   -0.609268
    14  C    0.654645
    15  H    0.236993
    16  H    0.255863
    17  H    0.251227
    18  H    0.221215
    19  H    0.190858
    20  H    0.221305
    21  H    0.251545
    22  H    0.256130
    23  H    0.236760
    24  H    0.250891
    25  H    0.246756
 Sum of Mulliken charges =   1.00000

 Dipole moment (field-independent basis, Debye):
    X=             -0.0065    Y=              0.1842    Z=              0.0002  Tot=              0.1843
 Quadrupole moment (field-independent basis, Debye-Ang):
   XX=            -31.2465   YY=            -56.2631   ZZ=            -84.0935
   XY=             -0.0036   XZ=              0.0061   YZ=              0.0730

 Normal termination of Gaussian 16 at Thu Jul 28 16:33:24 2022.
