 Gaussian 16, Revision C.01,
 Gaussian 16:  ES64L-G16RevC.01  3-Jul-2019

 ---------------------------------------------------------------
 #n M062X/6-311++G(d,p) TD(NStates=1) EmpiricalDispersion=GD3 SP
 ---------------------------------------------------------------

 -----
 SP_25
 -----
 Symbolic Z-matrix:
 Charge =  1 Multiplicity = 1

                         Standard orientation:
 ---------------------------------------------------------------------
 Center     Atomic      Atomic             Coordinates (Angstroms)
 Number     Number       Type             X           Y           Z
 ---------------------------------------------------------------------
      1          6           0        2.493499   -1.360606    0.002006
      2          6           0        3.694606   -0.672260    0.010200
      3          6           0        3.671991    0.713612    0.010381
      4          6           0        2.454213    1.407523   -0.003815
      5          6           0       -2.453899    1.407725   -0.003328
      6          6           0       -3.670931    0.713918    0.010658
      7          6           0       -3.694310   -0.671949    0.010133
      8          6           0       -2.493011   -1.360385    0.000702
      9          6           0       -0.002261   -1.453386   -0.004438
     10          6           0        0.000157    1.429352   -0.012180
     11          6           0        1.269650   -0.677056   -0.010054
     12          6           0        1.236150    0.730818   -0.004278
     13          6           0       -1.269760   -0.676951   -0.009901
     14          6           0       -1.236392    0.730916   -0.003583
     15          1           0        2.488743   -2.443698   -0.016881
     16          1           0        4.631328   -1.211981    0.005635
     17          1           0        4.610390    1.272138    0.007537
     18          1           0        2.458878    2.489930    0.013817
     19          1           0        0.000152    2.510370   -0.000761
     20          1           0       -2.458522    2.490130    0.014705
     21          1           0       -4.609034    1.272519    0.008339
     22          1           0       -4.630678   -1.211590    0.005593
     23          1           0       -2.488299   -2.443474   -0.018486
     24          1           0       -0.000485   -2.154101    0.872285
     25          1           0       -0.000689   -2.137863   -0.846808
 ---------------------------------------------------------------------

 SCF Done:  E(RM062X) =  -539.759523722     A.U. after   15 cycles

 Excitation energies and oscillator strengths:

 Excited State   1:      Singlet-A      2.8367 eV  437.06 nm  f=0.0294  <S**2>=0.000
      47 -> 48         0.70424
 This state for optimization and/or second-order correction.
 Total Energy, E(TD-HF/TD-DFT) =  -539.655275206
 Copying the excited state density for this state as the 1-particle RhoCI density.

 The electronic state is 1-A.
 Alpha  occ. eigenvalues --  -10.77675 -10.73225 -10.73197 -10.72355 -10.72353
 Alpha  occ. eigenvalues --  -10.71273 -10.71258 -10.70975 -10.70946 -10.70941
 Alpha  occ. eigenvalues --  -10.69869 -10.69858 -10.69673 -10.69660  -1.16512
 Alpha  occ. eigenvalues --   -1.12676  -1.07060  -1.05661  -1.01526  -1.00147
 Alpha  occ. eigenvalues --   -0.95861  -0.91035  -0.86432  -0.85940  -0.83824
 Alpha  occ. eigenvalues --   -0.78420  -0.76038  -0.74460  -0.69560  -0.69224
 Alpha  occ. eigenvalues --   -0.68499  -0.68117  -0.67973  -0.64897  -0.64419
 Alpha  occ. eigenvalues --   -0.62927  -0.61728  -0.60064  -0.59831  -0.59034
 Alpha  occ. eigenvalues --   -0.56876  -0.55161  -0.54759  -0.52520  -0.46782
 Alpha  occ. eigenvalues --   -0.46038  -0.44588
 Alpha virt. eigenvalues --   -0.26111  -0.14570  -0.14073  -0.12654  -0.11182
 Alpha virt. eigenvalues --   -0.10093  -0.09245  -0.08028  -0.07950  -0.07482
 Alpha virt. eigenvalues --   -0.07211  -0.07125  -0.05640  -0.05581  -0.05314

 Mulliken charges:
               1
     1  C    0.094083
     2  C   -0.414343
     3  C   -0.441897
     4  C    0.034512
     5  C    0.034708
     6  C   -0.442041
     7  C   -0.415481
     8  C    0.093319
     9  C   -0.335553
    10  C    0.100631
    11  C   -0.599979
    12  C    0.638247
    13  C   -0.603741
    14  C    0.638689
    15  H    0.236575
    16  H    0.255953
    17  H    0.252238
    18  H    0.220976
    19  H    0.190857
    20  H    0.220937
    21  H    0.252118
    22  H    0.255837
    23  H    0.236682
    24  H    0.250811
    25  H    0.245862
 Sum of Mulliken charges =   1.00000

 Dipole moment (field-independent basis, Debye):
    X=              0.0026    Y=              0.1830    Z=             -0.0005  Tot=              0.1830
 Quadrupole moment (field-independent basis, Debye-Ang):
   XX=            -31.2896   YY=            -56.2630   ZZ=            -84.0774
   XY=              0.0014   XZ=             -0.0024   YZ=              0.0957

 Normal termination of Gaussian 16 at Thu Jul 28 15:24:27 2022.
