 Gaussian 16, Revision C.01,
 Gaussian 16:  ES64L-G16RevC.01  3-Jul-2019

 ---------------------------------------------------------------
 #n M062X/6-311++G(d,p) TD(NStates=1) EmpiricalDispersion=GD3 SP
 ---------------------------------------------------------------

 ------
 SP_-75
 ------
 Symbolic Z-matrix:
 Charge =  1 Multiplicity = 1

                         Standard orientation:
 ---------------------------------------------------------------------
 Center     Atomic      Atomic             Coordinates (Angstroms)
 Number     Number       Type             X           Y           Z
 ---------------------------------------------------------------------
      1          6           0       -2.492295   -1.360595    0.000711
      2          6           0       -3.708702   -0.672261    0.010135
      3          6           0       -3.696790    0.713608    0.010647
      4          6           0       -2.472417    1.407517   -0.003346
      5          6           0        2.472095    1.407731   -0.003832
      6          6           0        3.695732    0.713923    0.010371
      7          6           0        3.708414   -0.671948    0.010206
      8          6           0        2.491815   -1.360396    0.002020
      9          6           0        0.002263   -1.453387   -0.004377
     10          6           0       -0.000163    1.429352   -0.012198
     11          6           0       -1.254351   -0.677057   -0.009900
     12          6           0       -1.238553    0.730811   -0.003594
     13          6           0        1.254459   -0.676950   -0.010047
     14          6           0        1.238789    0.730922   -0.004288
     15          1           0       -2.487842   -2.443684   -0.018466
     16          1           0       -4.642824   -1.211982    0.005599
     17          1           0       -4.609491    1.272130    0.008318
     18          1           0       -2.476581    2.489921    0.014675
     19          1           0       -0.000158    2.510370   -0.000790
     20          1           0        2.476219    2.490139    0.013788
     21          1           0        4.608133    1.272527    0.007525
     22          1           0        4.642182   -1.211589    0.005649
     23          1           0        2.487400   -2.443488   -0.016856
     24          1           0        0.000493   -2.138972   -0.846799
     25          1           0        0.000697   -2.152992    0.872314
 ---------------------------------------------------------------------

 SCF Done:  E(RM062X) =  -539.758729434     A.U. after   15 cycles

 Excitation energies and oscillator strengths:

 Excited State   1:      Singlet-A      2.8051 eV  441.99 nm  f=0.0279  <S**2>=0.000
      47 -> 48         0.70427
 This state for optimization and/or second-order correction.
 Total Energy, E(TD-HF/TD-DFT) =  -539.655643003
 Copying the excited state density for this state as the 1-particle RhoCI density.

 The electronic state is 1-A.
 Alpha  occ. eigenvalues --  -10.77658 -10.73287 -10.73260 -10.72521 -10.72519
 Alpha  occ. eigenvalues --  -10.71481 -10.71466 -10.71070 -10.71065 -10.70982
 Alpha  occ. eigenvalues --  -10.70091 -10.70080 -10.69604 -10.69590  -1.16378
 Alpha  occ. eigenvalues --   -1.12253  -1.06837  -1.05796  -1.01120  -1.00198
 Alpha  occ. eigenvalues --   -0.95704  -0.91074  -0.86409  -0.85866  -0.83806
 Alpha  occ. eigenvalues --   -0.78390  -0.76010  -0.74376  -0.69575  -0.69307
 Alpha  occ. eigenvalues --   -0.68593  -0.68246  -0.68135  -0.64583  -0.64151
 Alpha  occ. eigenvalues --   -0.63168  -0.62001  -0.59921  -0.59522  -0.59145
 Alpha  occ. eigenvalues --   -0.56924  -0.55263  -0.54900  -0.52356  -0.46492
 Alpha  occ. eigenvalues --   -0.46046  -0.44406
 Alpha virt. eigenvalues --   -0.26071  -0.14788  -0.14126  -0.12902  -0.11177
 Alpha virt. eigenvalues --   -0.10081  -0.09214  -0.08004  -0.07932  -0.07469
 Alpha virt. eigenvalues --   -0.07218  -0.07146  -0.05646  -0.05582  -0.05353

 Mulliken charges:
               1
     1  C    0.080060
     2  C   -0.398264
     3  C   -0.441502
     4  C    0.037822
     5  C    0.037265
     6  C   -0.441928
     7  C   -0.399974
     8  C    0.079146
     9  C   -0.302954
    10  C    0.094424
    11  C   -0.630825
    12  C    0.651476
    13  C   -0.631963
    14  C    0.653141
    15  H    0.236506
    16  H    0.256814
    17  H    0.245430
    18  H    0.222569
    19  H    0.188774
    20  H    0.222564
    21  H    0.245261
    22  H    0.256766
    23  H    0.236509
    24  H    0.248671
    25  H    0.254212
 Sum of Mulliken charges =   1.00000

 Dipole moment (field-independent basis, Debye):
    X=             -0.0027    Y=              0.1909    Z=              0.0010  Tot=              0.1909
 Quadrupole moment (field-independent basis, Debye-Ang):
   XX=            -30.9423   YY=            -56.2606   ZZ=            -84.2066
   XY=             -0.0015   XZ=             -0.0025   YZ=              0.0967

 Normal termination of Gaussian 16 at Thu Jul 28 14:07:01 2022.
