 Gaussian 16, Revision C.01,
 Gaussian 16:  ES64L-G16RevC.01  3-Jul-2019

 ---------------------------------------------------------------
 #n M062X/6-311++G(d,p) TD(NStates=1) EmpiricalDispersion=GD3 SP
 ---------------------------------------------------------------

 ------
 SP_125
 ------
 Symbolic Z-matrix:
 Charge =  1 Multiplicity = 1

                         Standard orientation:
 ---------------------------------------------------------------------
 Center     Atomic      Atomic             Coordinates (Angstroms)
 Number     Number       Type             X           Y           Z
 ---------------------------------------------------------------------
      1          6           0       -1.360835    0.003392    2.494155
      2          6           0       -0.672711    0.025412    3.683883
      3          6           0        0.713424    0.026284    3.652861
      4          6           0        1.408076   -0.008941    2.440406
      5          6           0        1.408076   -0.008941   -2.440406
      6          6           0        0.713424    0.026284   -3.652861
      7          6           0       -0.672711    0.025412   -3.683883
      8          6           0       -1.360835    0.003392   -2.494155
      9          6           0       -1.453478   -0.011025    0.000000
     10          6           0        1.430205   -0.030459   -0.000000
     11          6           0       -0.676680   -0.024937    1.281180
     12          6           0        0.731197   -0.009833    1.234471
     13          6           0       -0.676680   -0.024937   -1.281180
     14          6           0        0.731197   -0.009833   -1.234471
     15          1           0       -2.443266   -0.044185    2.489196
     16          1           0       -1.212291    0.014038    4.622378
     17          1           0        1.272221    0.019827    4.610387
     18          1           0        2.489878    0.035621    2.445425
     19          1           0        2.510916   -0.001925   -0.000000
     20          1           0        2.489878    0.035621   -2.445425
     21          1           0        1.272221    0.019827   -4.610387
     22          1           0       -1.212291    0.014038   -4.622378
     23          1           0       -2.443266   -0.044185   -2.489196
     24          1           0       -2.165920    0.891229    0.000000
     25          1           0       -2.128095   -0.827525    0.000000
 ---------------------------------------------------------------------

 SCF Done:  E(RM062X) =  -539.754402378     A.U. after   15 cycles

 Excitation energies and oscillator strengths:

 Excited State   1:      Singlet-A'     2.8504 eV  434.97 nm  f=0.0304  <S**2>=0.000
      47 -> 48         0.70420
 This state for optimization and/or second-order correction.
 Total Energy, E(TD-HF/TD-DFT) =  -539.649651619
 Copying the excited state density for this state as the 1-particle RhoCI density.

 The electronic state is 1-A'.
 Alpha  occ. eigenvalues --  -10.77695 -10.73176 -10.73175 -10.72241 -10.72239
 Alpha  occ. eigenvalues --  -10.71114 -10.71114 -10.70963 -10.70855 -10.70855
 Alpha  occ. eigenvalues --  -10.69732 -10.69732 -10.69707 -10.69707  -1.16624
 Alpha  occ. eigenvalues --   -1.12988  -1.07242  -1.05549  -1.01868  -1.00061
 Alpha  occ. eigenvalues --   -0.95984  -0.90998  -0.86459  -0.86000  -0.83833
 Alpha  occ. eigenvalues --   -0.78470  -0.76039  -0.74520  -0.69578  -0.69253
 Alpha  occ. eigenvalues --   -0.68545  -0.67970  -0.67708  -0.65133  -0.64625
 Alpha  occ. eigenvalues --   -0.62660  -0.61521  -0.60108  -0.60049  -0.58932
 Alpha  occ. eigenvalues --   -0.56855  -0.55072  -0.54612  -0.52646  -0.47036
 Alpha  occ. eigenvalues --   -0.45981  -0.44699
 Alpha virt. eigenvalues --   -0.26156  -0.14460  -0.14044  -0.12494  -0.11188
 Alpha virt. eigenvalues --   -0.10108  -0.09270  -0.08106  -0.07924  -0.07490
 Alpha virt. eigenvalues --   -0.07240  -0.07081  -0.05636  -0.05583  -0.05294

 Mulliken charges:
               1
     1  C    0.084081
     2  C   -0.416393
     3  C   -0.438499
     4  C    0.081184
     5  C    0.081184
     6  C   -0.438499
     7  C   -0.416393
     8  C    0.084081
     9  C   -0.364181
    10  C    0.082653
    11  C   -0.518700
    12  C    0.544027
    13  C   -0.518700
    14  C    0.544027
    15  H    0.235212
    16  H    0.255088
    17  H    0.256467
    18  H    0.218334
    19  H    0.189471
    20  H    0.218334
    21  H    0.256467
    22  H    0.255088
    23  H    0.235212
    24  H    0.251168
    25  H    0.239290
 Sum of Mulliken charges =   1.00000

 Dipole moment (field-independent basis, Debye):
    X=              0.1737    Y=             -0.0030    Z=              0.0000  Tot=              0.1737
 Quadrupole moment (field-independent basis, Debye-Ang):
   XX=            -56.2597   YY=            -83.9810   ZZ=            -31.5539
   XY=              0.2386   XZ=             -0.0000   YZ=              0.0000

 Normal termination of Gaussian 16 at Thu Jul 28 16:44:39 2022.
