 Gaussian 16, Revision C.01,
 Gaussian 16:  ES64L-G16RevC.01  3-Jul-2019

 ---------------------------------------------------------------
 #n M062X/6-311++G(d,p) TD(NStates=1) EmpiricalDispersion=GD3 SP
 ---------------------------------------------------------------

 -----
 SP_25
 -----
 Symbolic Z-matrix:
 Charge =  1 Multiplicity = 1

                         Standard orientation:
 ---------------------------------------------------------------------
 Center     Atomic      Atomic             Coordinates (Angstroms)
 Number     Number       Type             X           Y           Z
 ---------------------------------------------------------------------
      1          6           0        2.494318   -1.360916    0.003991
      2          6           0        3.689545   -0.672732    0.017868
      3          6           0        3.663487    0.713252    0.018065
      4          6           0        2.447619    1.407554   -0.006849
      5          6           0       -2.446843    1.408049   -0.005631
      6          6           0       -3.660835    0.714010    0.018761
      7          6           0       -3.688797   -0.671954    0.017706
      8          6           0       -2.493093   -1.360342    0.000736
      9          6           0       -0.005650   -1.453421   -0.007791
     10          6           0        0.000386    1.429687   -0.021305
     11          6           0        1.275305   -0.677007   -0.017657
     12          6           0        1.235066    0.730880   -0.007742
     13          6           0       -1.275580   -0.676745   -0.017267
     14          6           0       -1.235676    0.731113   -0.006002
     15          1           0        2.489416   -2.443752   -0.028952
     16          1           0        4.627508   -1.212471    0.009868
     17          1           0        4.611742    1.271817    0.012891
     18          1           0        2.452506    2.489729    0.023859
     19          1           0        0.000375    2.510585   -0.001316
     20          1           0       -2.451619    2.490210    0.026079
     21          1           0       -4.608356    1.272754    0.014905
     22          1           0       -4.625873   -1.211498    0.009768
     23          1           0       -2.488303   -2.443168   -0.032959
     24          1           0       -0.001204   -2.161010    0.881742
     25          1           0       -0.001716   -2.131761   -0.837182
 ---------------------------------------------------------------------

 SCF Done:  E(RM062X) =  -539.757486057     A.U. after   15 cycles

 Excitation energies and oscillator strengths:

 Excited State   1:      Singlet-A      2.8446 eV  435.85 nm  f=0.0299  <S**2>=0.000
      47 -> 48         0.70422
 This state for optimization and/or second-order correction.
 Total Energy, E(TD-HF/TD-DFT) =  -539.652948015
 Copying the excited state density for this state as the 1-particle RhoCI density.

 The electronic state is 1-A.
 Alpha  occ. eigenvalues --  -10.77684 -10.73227 -10.73157 -10.72298 -10.72294
 Alpha  occ. eigenvalues --  -10.71207 -10.71170 -10.70969 -10.70904 -10.70893
 Alpha  occ. eigenvalues --  -10.69798 -10.69771 -10.69715 -10.69681  -1.16567
 Alpha  occ. eigenvalues --   -1.12832  -1.07150  -1.05607  -1.01695  -1.00107
 Alpha  occ. eigenvalues --   -0.95922  -0.91017  -0.86445  -0.85969  -0.83829
 Alpha  occ. eigenvalues --   -0.78443  -0.76041  -0.74490  -0.69568  -0.69230
 Alpha  occ. eigenvalues --   -0.68521  -0.68047  -0.67844  -0.65016  -0.64522
 Alpha  occ. eigenvalues --   -0.62804  -0.61622  -0.60094  -0.59941  -0.58985
 Alpha  occ. eigenvalues --   -0.56864  -0.55120  -0.54686  -0.52583  -0.46907
 Alpha  occ. eigenvalues --   -0.46012  -0.44646
 Alpha virt. eigenvalues --   -0.26132  -0.14510  -0.14057  -0.12572  -0.11184
 Alpha virt. eigenvalues --   -0.10100  -0.09257  -0.08066  -0.07935  -0.07487
 Alpha virt. eigenvalues --   -0.07224  -0.07104  -0.05638  -0.05582  -0.05303

 Mulliken charges:
               1
     1  C    0.088963
     2  C   -0.415397
     3  C   -0.441206
     4  C    0.059018
     5  C    0.060977
     6  C   -0.441374
     7  C   -0.417938
     8  C    0.087874
     9  C   -0.343762
    10  C    0.095782
    11  C   -0.555131
    12  C    0.586131
    13  C   -0.565041
    14  C    0.585680
    15  H    0.235663
    16  H    0.255728
    17  H    0.254531
    18  H    0.219911
    19  H    0.190430
    20  H    0.219795
    21  H    0.254290
    22  H    0.255368
    23  H    0.236046
    24  H    0.250979
    25  H    0.242684
 Sum of Mulliken charges =   1.00000

 Dipole moment (field-independent basis, Debye):
    X=              0.0063    Y=              0.1787    Z=             -0.0017  Tot=              0.1788
 Quadrupole moment (field-independent basis, Debye-Ang):
   XX=            -31.4202   YY=            -56.2617   ZZ=            -84.0292
   XY=              0.0035   XZ=             -0.0061   YZ=              0.1668

 Normal termination of Gaussian 16 at Thu Jul 28 15:19:11 2022.
