 Gaussian 16, Revision C.01,
 Gaussian 16:  ES64L-G16RevC.01  3-Jul-2019

 ---------------------------------------------------------------
 #n M062X/6-311++G(d,p) TD(NStates=1) EmpiricalDispersion=GD3 SP
 ---------------------------------------------------------------

 ------
 SP_100
 ------
 Symbolic Z-matrix:
 Charge =  1 Multiplicity = 1

                         Standard orientation:
 ---------------------------------------------------------------------
 Center     Atomic      Atomic             Coordinates (Angstroms)
 Number     Number       Type             X           Y           Z
 ---------------------------------------------------------------------
      1          6           0        2.493582   -1.360572    0.002055
      2          6           0        3.689096   -0.672265    0.017777
      3          6           0        3.661896    0.713707    0.018467
      4          6           0        2.447153    1.407851   -0.006145
      5          6           0       -2.447309    1.407752   -0.006389
      6          6           0       -3.662426    0.713555    0.018327
      7          6           0       -3.689245   -0.672420    0.017809
      8          6           0       -2.493828   -1.360686    0.002706
      9          6           0        0.001130   -1.453423   -0.007699
     10          6           0       -0.000077    1.429687   -0.021332
     11          6           0        1.275470   -0.676850   -0.017417
     12          6           0        1.235432    0.731020   -0.006715
     13          6           0       -1.275415   -0.676903   -0.017495
     14          6           0       -1.235310    0.730973   -0.007063
     15          1           0        2.488747   -2.443402   -0.031323
     16          1           0        4.626527   -1.211887    0.009823
     17          1           0        4.609711    1.272380    0.014075
     18          1           0        2.451974    2.490018    0.025147
     19          1           0       -0.000075    2.510585   -0.001361
     20          1           0       -2.452151    2.489922    0.024703
     21          1           0       -4.610388    1.272192    0.013672
     22          1           0       -4.626854   -1.212081    0.009843
     23          1           0       -2.488970   -2.443519   -0.030521
     24          1           0        0.000241   -2.159346    0.881796
     25          1           0        0.000343   -2.133424   -0.837178
 ---------------------------------------------------------------------

 SCF Done:  E(RM062X) =  -539.757601339     A.U. after   15 cycles

 Excitation energies and oscillator strengths:

 Excited State   1:      Singlet-A      2.8447 eV  435.85 nm  f=0.0299  <S**2>=0.000
      47 -> 48         0.70423
 This state for optimization and/or second-order correction.
 Total Energy, E(TD-HF/TD-DFT) =  -539.653061435
 Copying the excited state density for this state as the 1-particle RhoCI density.

 The electronic state is 1-A.
 Alpha  occ. eigenvalues --  -10.77684 -10.73199 -10.73185 -10.72297 -10.72295
 Alpha  occ. eigenvalues --  -10.71193 -10.71185 -10.70970 -10.70900 -10.70898
 Alpha  occ. eigenvalues --  -10.69787 -10.69782 -10.69701 -10.69694  -1.16566
 Alpha  occ. eigenvalues --   -1.12832  -1.07150  -1.05605  -1.01695  -1.00108
 Alpha  occ. eigenvalues --   -0.95922  -0.91017  -0.86444  -0.85970  -0.83829
 Alpha  occ. eigenvalues --   -0.78442  -0.76041  -0.74490  -0.69566  -0.69230
 Alpha  occ. eigenvalues --   -0.68519  -0.68047  -0.67847  -0.65016  -0.64522
 Alpha  occ. eigenvalues --   -0.62802  -0.61623  -0.60095  -0.59942  -0.58985
 Alpha  occ. eigenvalues --   -0.56864  -0.55118  -0.54690  -0.52583  -0.46907
 Alpha  occ. eigenvalues --   -0.46012  -0.44646
 Alpha virt. eigenvalues --   -0.26132  -0.14509  -0.14057  -0.12572  -0.11184
 Alpha virt. eigenvalues --   -0.10100  -0.09257  -0.08066  -0.07936  -0.07487
 Alpha virt. eigenvalues --   -0.07225  -0.07103  -0.05638  -0.05582  -0.05303

 Mulliken charges:
               1
     1  C    0.088548
     2  C   -0.416922
     3  C   -0.441338
     4  C    0.060288
     5  C    0.059896
     6  C   -0.441304
     7  C   -0.416414
     8  C    0.088770
     9  C   -0.344076
    10  C    0.095842
    11  C   -0.561334
    12  C    0.585899
    13  C   -0.559350
    14  C    0.585990
    15  H    0.235893
    16  H    0.255511
    17  H    0.254387
    18  H    0.219843
    19  H    0.190418
    20  H    0.219866
    21  H    0.254435
    22  H    0.255583
    23  H    0.235817
    24  H    0.251199
    25  H    0.242553
 Sum of Mulliken charges =   1.00000

 Dipole moment (field-independent basis, Debye):
    X=             -0.0013    Y=              0.1787    Z=             -0.0013  Tot=              0.1787
 Quadrupole moment (field-independent basis, Debye-Ang):
   XX=            -31.4206   YY=            -56.2619   ZZ=            -84.0293
   XY=             -0.0007   XZ=              0.0012   YZ=              0.1678

 Normal termination of Gaussian 16 at Thu Jul 28 16:26:43 2022.
