 Gaussian 16, Revision C.01,
 Gaussian 16:  ES64L-G16RevC.01  3-Jul-2019

 ---------------------------------------------------------------
 #n M062X/6-311++G(d,p) TD(NStates=1) EmpiricalDispersion=GD3 SP
 ---------------------------------------------------------------

 ------
 SP_100
 ------
 Symbolic Z-matrix:
 Charge =  1 Multiplicity = 1

                         Standard orientation:
 ---------------------------------------------------------------------
 Center     Atomic      Atomic             Coordinates (Angstroms)
 Number     Number       Type             X           Y           Z
 ---------------------------------------------------------------------
      1          6           0        2.494402   -1.360954    0.004036
      2          6           0        3.684034   -0.672866    0.025442
      3          6           0        3.653392    0.713274    0.026150
      4          6           0        2.440560    1.407979   -0.009175
      5          6           0       -2.440252    1.408173   -0.008688
      6          6           0       -3.652330    0.713574    0.026429
      7          6           0       -3.683732   -0.672556    0.025378
      8          6           0       -2.493909   -1.360716    0.002737
      9          6           0       -0.002259   -1.453478   -0.011056
     10          6           0        0.000152    1.430205   -0.030450
     11          6           0        1.281125   -0.676732   -0.025019
     12          6           0        1.234348    0.731153   -0.010176
     13          6           0       -1.281235   -0.676628   -0.024860
     14          6           0       -1.234594    0.731241   -0.009479
     15          1           0        2.489419   -2.443388   -0.043396
     16          1           0        4.622707   -1.212486    0.014052
     17          1           0        4.611064    1.272036    0.019431
     18          1           0        2.445602    2.489785    0.035192
     19          1           0        0.000148    2.510916   -0.001910
     20          1           0       -2.445248    2.489971    0.036080
     21          1           0       -4.609710    1.272405    0.020240
     22          1           0       -4.622049   -1.212097    0.014014
     23          1           0       -2.488973   -2.443144   -0.044996
     24          1           0       -0.000478   -2.166474    0.891207
     25          1           0       -0.000684   -2.127541   -0.827522
 ---------------------------------------------------------------------

 SCF Done:  E(RM062X) =  -539.754357334     A.U. after   15 cycles

 Excitation energies and oscillator strengths:

 Excited State   1:      Singlet-A      2.8504 eV  434.97 nm  f=0.0304  <S**2>=0.000
      47 -> 48         0.70420
 This state for optimization and/or second-order correction.
 Total Energy, E(TD-HF/TD-DFT) =  -539.649607228
 Copying the excited state density for this state as the 1-particle RhoCI density.

 The electronic state is 1-A.
 Alpha  occ. eigenvalues --  -10.77695 -10.73190 -10.73162 -10.72241 -10.72239
 Alpha  occ. eigenvalues --  -10.71121 -10.71106 -10.70962 -10.70857 -10.70853
 Alpha  occ. eigenvalues --  -10.69739 -10.69725 -10.69713 -10.69702  -1.16624
 Alpha  occ. eigenvalues --   -1.12988  -1.07242  -1.05549  -1.01868  -1.00060
 Alpha  occ. eigenvalues --   -0.95984  -0.90999  -0.86459  -0.86000  -0.83833
 Alpha  occ. eigenvalues --   -0.78470  -0.76039  -0.74520  -0.69579  -0.69253
 Alpha  occ. eigenvalues --   -0.68546  -0.67970  -0.67707  -0.65133  -0.64625
 Alpha  occ. eigenvalues --   -0.62661  -0.61521  -0.60108  -0.60049  -0.58932
 Alpha  occ. eigenvalues --   -0.56855  -0.55073  -0.54612  -0.52646  -0.47036
 Alpha  occ. eigenvalues --   -0.45981  -0.44699
 Alpha virt. eigenvalues --   -0.26156  -0.14460  -0.14044  -0.12494  -0.11188
 Alpha virt. eigenvalues --   -0.10108  -0.09270  -0.08106  -0.07924  -0.07490
 Alpha virt. eigenvalues --   -0.07240  -0.07081  -0.05636  -0.05583  -0.05294

 Mulliken charges:
               1
     1  C    0.084016
     2  C   -0.415921
     3  C   -0.438515
     4  C    0.080497
     5  C    0.081831
     6  C   -0.438468
     7  C   -0.416886
     8  C    0.083934
     9  C   -0.364020
    10  C    0.082629
    11  C   -0.516673
    12  C    0.544296
    13  C   -0.520510
    14  C    0.543701
    15  H    0.235112
    16  H    0.255174
    17  H    0.256503
    18  H    0.218359
    19  H    0.189475
    20  H    0.218308
    21  H    0.256431
    22  H    0.255001
    23  H    0.235313
    24  H    0.251088
    25  H    0.239326
 Sum of Mulliken charges =   1.00000

 Dipole moment (field-independent basis, Debye):
    X=              0.0025    Y=              0.1737    Z=             -0.0032  Tot=              0.1738
 Quadrupole moment (field-independent basis, Debye-Ang):
   XX=            -31.5537   YY=            -56.2596   ZZ=            -83.9810
   XY=              0.0014   XZ=             -0.0024   YZ=              0.2383

 Normal termination of Gaussian 16 at Thu Jul 28 16:22:27 2022.
