 Gaussian 16, Revision C.01,
 Gaussian 16:  ES64L-G16RevC.01  3-Jul-2019

 ---------------------------------------------------------------
 #n M062X/6-311++G(d,p) TD(NStates=1) EmpiricalDispersion=GD3 SP
 ---------------------------------------------------------------

 -------
 SP_-125
 -------
 Symbolic Z-matrix:
 Charge =  1 Multiplicity = 1

                         Standard orientation:
 ---------------------------------------------------------------------
 Center     Atomic      Atomic             Coordinates (Angstroms)
 Number     Number       Type             X           Y           Z
 ---------------------------------------------------------------------
      1          6           0       -2.493868   -1.360957   -0.003237
      2          6           0       -3.702239   -0.672770   -0.000162
      3          6           0       -3.686509    0.713052    0.000667
      4          6           0       -2.463950    1.407018    0.001171
      5          6           0        2.462361    1.408058   -0.001261
      6          6           0        3.681213    0.714607   -0.000718
      7          6           0        3.700778   -0.671208    0.000183
      8          6           0        2.491447   -1.359905    0.003296
      9          6           0        0.011309   -1.453367    0.000149
     10          6           0       -0.000799    1.429189   -0.000046
     11          6           0       -1.261784   -0.677331    0.000386
     12          6           0       -1.236872    0.730543    0.001709
     13          6           0        1.262325   -0.676799   -0.000366
     14          6           0        1.238069    0.731065   -0.001764
     15          1           0       -2.489181   -2.444172   -0.003961
     16          1           0       -4.638371   -1.212668   -0.000090
     17          1           0       -4.612652    1.271376    0.001953
     18          1           0       -2.468447    2.489538    0.002144
     19          1           0       -0.000777    2.510266   -0.000075
     20          1           0        2.466651    2.490579   -0.002292
     21          1           0        4.605871    1.273321   -0.002033
     22          1           0        4.635137   -1.210711    0.000141
     23          1           0        2.486967   -2.443122    0.004078
     24          1           0        0.002444   -2.148559   -0.859537
     25          1           0        0.003466   -2.143013    0.859633
 ---------------------------------------------------------------------

 SCF Done:  E(RM062X) =  -539.760094014     A.U. after   15 cycles

 Excitation energies and oscillator strengths:

 Excited State   1:      Singlet-A      2.8227 eV  439.23 nm  f=0.0287  <S**2>=0.000
      47 -> 48         0.70425
 This state for optimization and/or second-order correction.
 Total Energy, E(TD-HF/TD-DFT) =  -539.656360058
 Copying the excited state density for this state as the 1-particle RhoCI density.

 The electronic state is 1-A.
 Alpha  occ. eigenvalues --  -10.77665 -10.73309 -10.73171 -10.72439 -10.72432
 Alpha  occ. eigenvalues --  -10.71405 -10.71331 -10.71017 -10.70993 -10.70980
 Alpha  occ. eigenvalues --  -10.69999 -10.69946 -10.69663 -10.69596  -1.16444
 Alpha  occ. eigenvalues --   -1.12466  -1.06945  -1.05735  -1.01313  -1.00183
 Alpha  occ. eigenvalues --   -0.95782  -0.91056  -0.86420  -0.85900  -0.83816
 Alpha  occ. eigenvalues --   -0.78399  -0.76029  -0.74418  -0.69564  -0.69245
 Alpha  occ. eigenvalues --   -0.68504  -0.68194  -0.68102  -0.64739  -0.64286
 Alpha  occ. eigenvalues --   -0.63071  -0.61860  -0.60004  -0.59678  -0.59093
 Alpha  occ. eigenvalues --   -0.56896  -0.55226  -0.54822  -0.52438  -0.46625
 Alpha  occ. eigenvalues --   -0.46056  -0.44501
 Alpha virt. eigenvalues --   -0.26088  -0.14669  -0.14098  -0.12774  -0.11179
 Alpha virt. eigenvalues --   -0.10086  -0.09230  -0.07983  -0.07970  -0.07476
 Alpha virt. eigenvalues --   -0.07203  -0.07146  -0.05643  -0.05581  -0.05332

 Mulliken charges:
               1
     1  C    0.095349
     2  C   -0.403098
     3  C   -0.439417
     4  C    0.015175
     5  C    0.013582
     6  C   -0.440607
     7  C   -0.409994
     8  C    0.090752
     9  C   -0.334399
    10  C    0.092900
    11  C   -0.629171
    12  C    0.683257
    13  C   -0.642993
    14  C    0.689148
    15  H    0.237139
    16  H    0.256512
    17  H    0.249252
    18  H    0.222065
    19  H    0.190419
    20  H    0.221950
    21  H    0.248520
    22  H    0.256104
    23  H    0.237415
    24  H    0.249778
    25  H    0.250363
 Sum of Mulliken charges =   1.00000

 Dipole moment (field-independent basis, Debye):
    X=             -0.0131    Y=              0.1875    Z=              0.0006  Tot=              0.1879
 Quadrupole moment (field-independent basis, Debye-Ang):
   XX=            -31.1162   YY=            -56.2625   ZZ=            -84.1418
   XY=             -0.0073   XZ=             -0.0123   YZ=              0.0018

 Normal termination of Gaussian 16 at Thu Jul 28 13:14:37 2022.
