 Gaussian 16, Revision C.01,
 Gaussian 16:  ES64L-G16RevC.01  3-Jul-2019

 ---------------------------------------------------------------
 #n M062X/6-311++G(d,p) TD(NStates=1) EmpiricalDispersion=GD3 SP
 ---------------------------------------------------------------

 ------
 SP_-75
 ------
 Symbolic Z-matrix:
 Charge =  1 Multiplicity = 1

                         Standard orientation:
 ---------------------------------------------------------------------
 Center     Atomic      Atomic             Coordinates (Angstroms)
 Number     Number       Type             X           Y           Z
 ---------------------------------------------------------------------
      1          6           0       -2.493110   -1.360695   -0.001280
      2          6           0       -3.703635   -0.672387    0.002460
      3          6           0       -3.688285    0.713436    0.002961
      4          6           0       -2.465829    1.407282   -0.000310
      5          6           0        2.465032    1.407805   -0.001525
      6          6           0        3.685637    0.714216    0.002270
      7          6           0        3.702907   -0.671605    0.002634
      8          6           0        2.491902   -1.360176    0.001989
      9          6           0        0.005655   -1.453370   -0.001026
     10          6           0       -0.000401    1.429199   -0.003070
     11          6           0       -1.260008   -0.677195   -0.002302
     12          6           0       -1.237472    0.730675   -0.000130
     13          6           0        1.260277   -0.676928   -0.002676
     14          6           0        1.238069    0.730941   -0.001866
     15          1           0       -2.488512   -2.443902   -0.006400
     16          1           0       -4.638998   -1.212185    0.001358
     17          1           0       -4.610845    1.271859    0.002957
     18          1           0       -2.470212    2.489794    0.004634
     19          1           0       -0.000390    2.510272   -0.000231
     20          1           0        2.469313    2.490320    0.002416
     21          1           0        4.607454    1.272836    0.000967
     22          1           0        4.637384   -1.211206    0.001476
     23          1           0        2.487406   -2.443385   -0.002379
     24          1           0        0.001225   -2.145294   -0.856375
     25          1           0        0.001736   -2.146304    0.862797
 ---------------------------------------------------------------------

 SCF Done:  E(RM062X) =  -539.760036728     A.U. after   15 cycles

 Excitation energies and oscillator strengths:

 Excited State   1:      Singlet-A      2.8187 eV  439.86 nm  f=0.0285  <S**2>=0.000
      47 -> 48         0.70426
 This state for optimization and/or second-order correction.
 Total Energy, E(TD-HF/TD-DFT) =  -539.656450158
 Copying the excited state density for this state as the 1-particle RhoCI density.

 The electronic state is 1-A.
 Alpha  occ. eigenvalues --  -10.77663 -10.73283 -10.73214 -10.72458 -10.72454
 Alpha  occ. eigenvalues --  -10.71413 -10.71376 -10.71026 -10.71014 -10.70980
 Alpha  occ. eigenvalues --  -10.70013 -10.69987 -10.69638 -10.69604  -1.16426
 Alpha  occ. eigenvalues --   -1.12413  -1.06917  -1.05749  -1.01263  -1.00190
 Alpha  occ. eigenvalues --   -0.95762  -0.91061  -0.86416  -0.85892  -0.83814
 Alpha  occ. eigenvalues --   -0.78396  -0.76024  -0.74408  -0.69564  -0.69257
 Alpha  occ. eigenvalues --   -0.68517  -0.68209  -0.68121  -0.64700  -0.64251
 Alpha  occ. eigenvalues --   -0.63096  -0.61899  -0.59985  -0.59640  -0.59106
 Alpha  occ. eigenvalues --   -0.56903  -0.55230  -0.54852  -0.52417  -0.46589
 Alpha  occ. eigenvalues --   -0.46057  -0.44478
 Alpha virt. eigenvalues --   -0.26083  -0.14697  -0.14105  -0.12805  -0.11178
 Alpha virt. eigenvalues --   -0.10085  -0.09226  -0.07983  -0.07965  -0.07474
 Alpha virt. eigenvalues --   -0.07205  -0.07148  -0.05644  -0.05582  -0.05337

 Mulliken charges:
               1
     1  C    0.092181
     2  C   -0.402847
     3  C   -0.439741
     4  C    0.016808
     5  C    0.015845
     6  C   -0.440435
     7  C   -0.406488
     8  C    0.089862
     9  C   -0.329444
    10  C    0.092480
    11  C   -0.635971
    12  C    0.683862
    13  C   -0.641956
    14  C    0.687132
    15  H    0.237172
    16  H    0.256510
    17  H    0.248213
    18  H    0.222223
    19  H    0.190099
    20  H    0.222177
    21  H    0.247832
    22  H    0.256327
    23  H    0.237278
    24  H    0.249630
    25  H    0.251250
 Sum of Mulliken charges =   1.00000

 Dipole moment (field-independent basis, Debye):
    X=             -0.0066    Y=              0.1885    Z=              0.0004  Tot=              0.1886
 Quadrupole moment (field-independent basis, Debye-Ang):
   XX=            -31.0726   YY=            -56.2623   ZZ=            -84.1580
   XY=             -0.0037   XZ=             -0.0061   YZ=              0.0250

 Normal termination of Gaussian 16 at Thu Jul 28 14:02:00 2022.
