 Gaussian 16, Revision C.01,
 Gaussian 16:  ES64L-G16RevC.01  3-Jul-2019

 ---------------------------------------------------------------
 #n M062X/6-311++G(d,p) TD(NStates=1) EmpiricalDispersion=GD3 SP
 ---------------------------------------------------------------

 ------
 SP_-50
 ------
 Symbolic Z-matrix:
 Charge =  1 Multiplicity = 1

                         Standard orientation:
 ---------------------------------------------------------------------
 Center     Atomic      Atomic             Coordinates (Angstroms)
 Number     Number       Type             X           Y           Z
 ---------------------------------------------------------------------
      1          6           0       -2.491785   -1.360483    0.002024
      2          6           0       -3.710249   -0.672091    0.012727
      3          6           0       -3.699096    0.713808    0.013077
      4          6           0       -2.474450    1.407726   -0.004592
      5          6           0        2.474612    1.407619   -0.004349
      6          6           0        3.699626    0.713649    0.013214
      7          6           0        3.710392   -0.672248    0.012691
      8          6           0        2.492025   -1.360581    0.001369
      9          6           0       -0.001132   -1.453396   -0.005525
     10          6           0        0.000082    1.429443   -0.015231
     11          6           0       -1.252519   -0.676942   -0.012507
     12          6           0       -1.239030    0.730930   -0.005090
     13          6           0        1.252466   -0.676996   -0.012434
     14          6           0        1.238912    0.730874   -0.004743
     15          1           0       -2.487398   -2.443504   -0.021693
     16          1           0       -4.643780   -1.211741    0.007033
     17          1           0       -4.608360    1.272417    0.009719
     18          1           0       -2.478522    2.490069    0.017593
     19          1           0        0.000080    2.510429   -0.000961
     20          1           0        2.478703    2.489959    0.018037
     21          1           0        4.609039    1.272217    0.010114
     22          1           0        4.644101   -1.211938    0.007008
     23          1           0        2.487619   -2.443600   -0.022499
     24          1           0       -0.000247   -2.136359   -0.843601
     25          1           0       -0.000349   -2.155825    0.875459
 ---------------------------------------------------------------------

 SCF Done:  E(RM062X) =  -539.757984061     A.U. after   15 cycles

 Excitation energies and oscillator strengths:

 Excited State   1:      Singlet-A      2.8001 eV  442.78 nm  f=0.0277  <S**2>=0.000
      47 -> 48         0.70427
 This state for optimization and/or second-order correction.
 Total Energy, E(TD-HF/TD-DFT) =  -539.655081654
 Copying the excited state density for this state as the 1-particle RhoCI density.

 The electronic state is 1-A.
 Alpha  occ. eigenvalues --  -10.77657 -10.73289 -10.73276 -10.72543 -10.72541
 Alpha  occ. eigenvalues --  -10.71504 -10.71496 -10.71085 -10.71082 -10.70981
 Alpha  occ. eigenvalues --  -10.70117 -10.70111 -10.69593 -10.69586  -1.16363
 Alpha  occ. eigenvalues --   -1.12200  -1.06811  -1.05812  -1.01077  -1.00196
 Alpha  occ. eigenvalues --   -0.95686  -0.91079  -0.86408  -0.85857  -0.83804
 Alpha  occ. eigenvalues --   -0.78390  -0.76004  -0.74365  -0.69582  -0.69329
 Alpha  occ. eigenvalues --   -0.68628  -0.68255  -0.68127  -0.64545  -0.64118
 Alpha  occ. eigenvalues --   -0.63188  -0.62033  -0.59897  -0.59482  -0.59156
 Alpha  occ. eigenvalues --   -0.56933  -0.55274  -0.54913  -0.52336  -0.46465
 Alpha  occ. eigenvalues --   -0.46037  -0.44381
 Alpha virt. eigenvalues --   -0.26068  -0.14822  -0.14134  -0.12936  -0.11177
 Alpha virt. eigenvalues --   -0.10080  -0.09211  -0.08012  -0.07921  -0.07467
 Alpha virt. eigenvalues --   -0.07223  -0.07144  -0.05647  -0.05582  -0.05359

 Mulliken charges:
               1
     1  C    0.073905
     2  C   -0.397223
     3  C   -0.442409
     4  C    0.047710
     5  C    0.048024
     6  C   -0.442171
     7  C   -0.396328
     8  C    0.074369
     9  C   -0.292927
    10  C    0.094213
    11  C   -0.624260
    12  C    0.634996
    13  C   -0.623900
    14  C    0.634101
    15  H    0.236156
    16  H    0.256906
    17  H    0.244384
    18  H    0.222621
    19  H    0.188226
    20  H    0.222621
    21  H    0.244472
    22  H    0.256926
    23  H    0.236160
    24  H    0.248330
    25  H    0.255097
 Sum of Mulliken charges =   1.00000

 Dipole moment (field-independent basis, Debye):
    X=              0.0014    Y=              0.1915    Z=              0.0013  Tot=              0.1915
 Quadrupole moment (field-independent basis, Debye-Ang):
   XX=            -30.8989   YY=            -56.2598   ZZ=            -84.2228
   XY=              0.0008   XZ=              0.0012   YZ=              0.1202

 Normal termination of Gaussian 16 at Thu Jul 28 14:30:36 2022.
