 Gaussian 16, Revision C.01,
 Gaussian 16:  ES64L-G16RevC.01  3-Jul-2019

 ---------------------------------------------------------------
 #n M062X/6-311++G(d,p) TD(NStates=1) EmpiricalDispersion=GD3 SP
 ---------------------------------------------------------------

 ----
 SP_0
 ----
 Symbolic Z-matrix:
 Charge =  1 Multiplicity = 1

                         Standard orientation:
 ---------------------------------------------------------------------
 Center     Atomic      Atomic             Coordinates (Angstroms)
 Number     Number       Type             X           Y           Z
 ---------------------------------------------------------------------
      1          6           0       -2.491306   -1.360286    0.003324
      2          6           0       -3.709962   -0.671778    0.012795
      3          6           0       -3.698038    0.714124    0.012812
      4          6           0       -2.474127    1.407941   -0.005060
      5          6           0        2.474934    1.407404   -0.003845
      6          6           0        3.700684    0.713333    0.013501
      7          6           0        3.710680   -0.672561    0.012616
      8          6           0        2.492505   -1.360778    0.000049
      9          6           0       -0.005658   -1.453395   -0.005589
     10          6           0        0.000409    1.429443   -0.015213
     11          6           0       -1.252626   -0.676834   -0.012657
     12          6           0       -1.239266    0.731043   -0.005773
     13          6           0        1.252359   -0.677103   -0.012291
     14          6           0        1.238676    0.730762   -0.004039
     15          1           0       -2.486958   -2.443311   -0.020104
     16          1           0       -4.643139   -1.211349    0.007075
     17          1           0       -4.607002    1.272815    0.008945
     18          1           0       -2.478160    2.490288    0.016736
     19          1           0        0.000398    2.510428   -0.000932
     20          1           0        2.479065    2.489739    0.018952
     21          1           0        4.610396    1.271818    0.010922
     22          1           0        4.644743   -1.212331    0.006948
     23          1           0        2.488060   -2.443793   -0.024132
     24          1           0       -0.001235   -2.135250   -0.843608
     25          1           0       -0.001746   -2.156934    0.875427
 ---------------------------------------------------------------------

 SCF Done:  E(RM062X) =  -539.757910199     A.U. after   15 cycles

 Excitation energies and oscillator strengths:

 Excited State   1:      Singlet-A      2.8001 eV  442.79 nm  f=0.0277  <S**2>=0.000
      47 -> 48         0.70427
 This state for optimization and/or second-order correction.
 Total Energy, E(TD-HF/TD-DFT) =  -539.655009018
 Copying the excited state density for this state as the 1-particle RhoCI density.

 The electronic state is 1-A.
 Alpha  occ. eigenvalues --  -10.77657 -10.73317 -10.73248 -10.72544 -10.72540
 Alpha  occ. eigenvalues --  -10.71519 -10.71482 -10.71090 -10.71077 -10.70981
 Alpha  occ. eigenvalues --  -10.70127 -10.70101 -10.69607 -10.69573  -1.16363
 Alpha  occ. eigenvalues --   -1.12200  -1.06811  -1.05813  -1.01077  -1.00195
 Alpha  occ. eigenvalues --   -0.95686  -0.91079  -0.86408  -0.85857  -0.83804
 Alpha  occ. eigenvalues --   -0.78390  -0.76004  -0.74365  -0.69585  -0.69328
 Alpha  occ. eigenvalues --   -0.68630  -0.68255  -0.68124  -0.64545  -0.64118
 Alpha  occ. eigenvalues --   -0.63189  -0.62032  -0.59897  -0.59482  -0.59156
 Alpha  occ. eigenvalues --   -0.56933  -0.55277  -0.54909  -0.52336  -0.46465
 Alpha  occ. eigenvalues --   -0.46037  -0.44381
 Alpha virt. eigenvalues --   -0.26068  -0.14822  -0.14134  -0.12936  -0.11177
 Alpha virt. eigenvalues --   -0.10080  -0.09211  -0.08013  -0.07920  -0.07467
 Alpha virt. eigenvalues --   -0.07223  -0.07145  -0.05647  -0.05582  -0.05359

 Mulliken charges:
               1
     1  C    0.072858
     2  C   -0.398997
     3  C   -0.442853
     4  C    0.046907
     5  C    0.048478
     6  C   -0.441663
     7  C   -0.394527
     8  C    0.075197
     9  C   -0.292809
    10  C    0.094117
    11  C   -0.624850
    12  C    0.636900
    13  C   -0.623043
    14  C    0.632423
    15  H    0.236146
    16  H    0.256866
    17  H    0.244210
    18  H    0.222616
    19  H    0.188235
    20  H    0.222619
    21  H    0.244646
    22  H    0.256967
    23  H    0.236170
    24  H    0.248424
    25  H    0.254964
 Sum of Mulliken charges =   1.00000

 Dipole moment (field-independent basis, Debye):
    X=              0.0068    Y=              0.1915    Z=              0.0011  Tot=              0.1916
 Quadrupole moment (field-independent basis, Debye-Ang):
   XX=            -30.8987   YY=            -56.2597   ZZ=            -84.2228
   XY=              0.0038   XZ=              0.0062   YZ=              0.1195

 Normal termination of Gaussian 16 at Thu Jul 28 15:15:51 2022.
