 Gaussian 16, Revision C.01,
 Gaussian 16:  ES64L-G16RevC.01  3-Jul-2019

 ---------------------------------------------------------------
 #n M062X/6-311++G(d,p) TD(NStates=1) EmpiricalDispersion=GD3 SP
 ---------------------------------------------------------------

 ------
 SP_150
 ------
 Symbolic Z-matrix:
 Charge =  1 Multiplicity = 1

                         Standard orientation:
 ---------------------------------------------------------------------
 Center     Atomic      Atomic             Coordinates (Angstroms)
 Number     Number       Type             X           Y           Z
 ---------------------------------------------------------------------
      1          6           0        2.493636   -1.360582    0.002087
      2          6           0        3.685420   -0.672341    0.022828
      3          6           0        3.655165    0.713728    0.023857
      4          6           0        2.442450    1.408120   -0.007697
      5          6           0       -2.442912    1.407827   -0.008427
      6          6           0       -3.656757    0.713276    0.023439
      7          6           0       -3.685871   -0.672806    0.022923
      8          6           0       -2.494374   -1.360934    0.004038
      9          6           0        0.003389   -1.453458   -0.009874
     10          6           0       -0.000229    1.430012   -0.027430
     11          6           0        1.279350   -0.676675   -0.022323
     12          6           0        1.234955    0.731190   -0.008337
     13          6           0       -1.279185   -0.676832   -0.022559
     14          6           0       -1.234587    0.731055   -0.009382
     15          1           0        2.488749   -2.443159   -0.040950
     16          1           0        4.623324   -1.211885    0.012614
     17          1           0        4.609259    1.272523    0.018437
     18          1           0        2.447372    2.490054    0.032702
     19          1           0       -0.000223    2.510793   -0.001757
     20          1           0       -2.447903    2.489772    0.031370
     21          1           0       -4.611290    1.271967    0.017225
     22          1           0       -4.624308   -1.212468    0.012672
     23          1           0       -2.489418   -2.443519   -0.038548
     24          1           0        0.000719   -2.162965    0.888118
     25          1           0        0.001027   -2.130586   -0.830748
 ---------------------------------------------------------------------

 SCF Done:  E(RM062X) =  -539.755642709     A.U. after   15 cycles

 Excitation energies and oscillator strengths:

 Excited State   1:      Singlet-A      2.8488 eV  435.22 nm  f=0.0302  <S**2>=0.000
      47 -> 48         0.70421
 This state for optimization and/or second-order correction.
 Total Energy, E(TD-HF/TD-DFT) =  -539.650952992
 Copying the excited state density for this state as the 1-particle RhoCI density.

 The electronic state is 1-A.
 Alpha  occ. eigenvalues --  -10.77691 -10.73202 -10.73160 -10.72260 -10.72257
 Alpha  occ. eigenvalues --  -10.71150 -10.71127 -10.70966 -10.70873 -10.70866
 Alpha  occ. eigenvalues --  -10.69741 -10.69730 -10.69725 -10.69710  -1.16604
 Alpha  occ. eigenvalues --   -1.12936  -1.07211  -1.05567  -1.01810  -1.00077
 Alpha  occ. eigenvalues --   -0.95963  -0.91004  -0.86454  -0.85990  -0.83832
 Alpha  occ. eigenvalues --   -0.78460  -0.76040  -0.74510  -0.69572  -0.69244
 Alpha  occ. eigenvalues --   -0.68536  -0.67996  -0.67757  -0.65094  -0.64590
 Alpha  occ. eigenvalues --   -0.62710  -0.61554  -0.60107  -0.60013  -0.58950
 Alpha  occ. eigenvalues --   -0.56858  -0.55089  -0.54637  -0.52625  -0.46993
 Alpha  occ. eigenvalues --   -0.45992  -0.44682
 Alpha virt. eigenvalues --   -0.26148  -0.14475  -0.14048  -0.12520  -0.11186
 Alpha virt. eigenvalues --   -0.10105  -0.09266  -0.08092  -0.07928  -0.07489
 Alpha virt. eigenvalues --   -0.07235  -0.07088  -0.05636  -0.05582  -0.05296

 Mulliken charges:
               1
     1  C    0.085393
     2  C   -0.417185
     3  C   -0.439581
     4  C    0.075695
     5  C    0.073954
     6  C   -0.439588
     7  C   -0.415724
     8  C    0.085704
     9  C   -0.356939
    10  C    0.087546
    11  C   -0.535314
    12  C    0.556282
    13  C   -0.529449
    14  C    0.557009
    15  H    0.235551
    16  H    0.255132
    17  H    0.255737
    18  H    0.218857
    19  H    0.189827
    20  H    0.218931
    21  H    0.255857
    22  H    0.255377
    23  H    0.235274
    24  H    0.251316
    25  H    0.240335
 Sum of Mulliken charges =   1.00000

 Dipole moment (field-independent basis, Debye):
    X=             -0.0037    Y=              0.1754    Z=             -0.0022  Tot=              0.1755
 Quadrupole moment (field-independent basis, Debye-Ang):
   XX=            -31.5093   YY=            -56.2606   ZZ=            -83.9972
   XY=             -0.0020   XZ=              0.0036   YZ=              0.2155

 Normal termination of Gaussian 16 at Thu Jul 28 17:09:21 2022.
