 Gaussian 16, Revision C.01,
 Gaussian 16:  ES64L-G16RevC.01  3-Jul-2019

 ---------------------------------------------------------------
 #n M062X/6-311++G(d,p) TD(NStates=1) EmpiricalDispersion=GD3 SP
 ---------------------------------------------------------------

 ------
 SP_100
 ------
 Symbolic Z-matrix:
 Charge =  1 Multiplicity = 1

                         Standard orientation:
 ---------------------------------------------------------------------
 Center     Atomic      Atomic             Coordinates (Angstroms)
 Number     Number       Type             X           Y           Z
 ---------------------------------------------------------------------
      1          6           0       -1.360690    0.002716    2.493855
      2          6           0       -0.672451    0.020333    3.687408
      3          6           0        0.713570    0.021028    3.659061
      4          6           0        1.407882   -0.007156    2.444956
      5          6           0        1.407882   -0.007156   -2.444956
      6          6           0        0.713570    0.021028   -3.659061
      7          6           0       -0.672451    0.020333   -3.687408
      8          6           0       -1.360690    0.002716   -2.493855
      9          6           0       -1.453439   -0.008818    0.000000
     10          6           0        1.429839   -0.024372    0.000000
     11          6           0       -0.676819   -0.019950    1.277355
     12          6           0        0.731056   -0.007869    1.235071
     13          6           0       -0.676819   -0.019950   -1.277355
     14          6           0        0.731056   -0.007869   -1.235071
     15          1           0       -2.443403   -0.035346    2.488971
     16          1           0       -1.212074    0.011233    4.625253
     17          1           0        1.272267    0.015861    4.610162
     18          1           0        2.489943    0.028495    2.449850
     19          1           0        2.510682   -0.001545    0.000000
     20          1           0        2.489943    0.028495   -2.449850
     21          1           0        1.272267    0.015861   -4.610162
     22          1           0       -1.212074    0.011233   -4.625253
     23          1           0       -2.443403   -0.035346   -2.488971
     24          1           0       -2.161698    0.884940   -0.000000
     25          1           0       -2.131439   -0.833964    0.000000
 ---------------------------------------------------------------------

 SCF Done:  E(RM062X) =  -539.756663256     A.U. after   15 cycles

 Excitation energies and oscillator strengths:

 Excited State   1:      Singlet-A'     2.8468 eV  435.52 nm  f=0.0301  <S**2>=0.000
      47 -> 48         0.70422
 This state for optimization and/or second-order correction.
 Total Energy, E(TD-HF/TD-DFT) =  -539.652044300
 Copying the excited state density for this state as the 1-particle RhoCI density.

 The electronic state is 1-A'.
 Alpha  occ. eigenvalues --  -10.77688 -10.73187 -10.73186 -10.72278 -10.72276
 Alpha  occ. eigenvalues --  -10.71164 -10.71164 -10.70968 -10.70884 -10.70884
 Alpha  occ. eigenvalues --  -10.69758 -10.69758 -10.69709 -10.69709  -1.16585
 Alpha  occ. eigenvalues --   -1.12884  -1.07180  -1.05587  -1.01752  -1.00093
 Alpha  occ. eigenvalues --   -0.95942  -0.91011  -0.86449  -0.85980  -0.83831
 Alpha  occ. eigenvalues --   -0.78451  -0.76040  -0.74500  -0.69569  -0.69236
 Alpha  occ. eigenvalues --   -0.68528  -0.68022  -0.67801  -0.65055  -0.64556
 Alpha  occ. eigenvalues --   -0.62757  -0.61589  -0.60101  -0.59978  -0.58968
 Alpha  occ. eigenvalues --   -0.56861  -0.55103  -0.54665  -0.52604  -0.46950
 Alpha  occ. eigenvalues --   -0.46002  -0.44665
 Alpha virt. eigenvalues --   -0.26140  -0.14492  -0.14053  -0.12545  -0.11185
 Alpha virt. eigenvalues --   -0.10102  -0.09261  -0.08079  -0.07932  -0.07488
 Alpha virt. eigenvalues --   -0.07230  -0.07096  -0.05637  -0.05582  -0.05300

 Mulliken charges:
               1
     1  C    0.086936
     2  C   -0.416632
     3  C   -0.440543
     4  C    0.067777
     5  C    0.067777
     6  C   -0.440543
     7  C   -0.416632
     8  C    0.086936
     9  C   -0.349822
    10  C    0.091995
    11  C   -0.546141
    12  C    0.570555
    13  C   -0.546141
    14  C    0.570555
    15  H    0.235627
    16  H    0.255408
    17  H    0.255113
    18  H    0.219399
    19  H    0.190150
    20  H    0.219399
    21  H    0.255113
    22  H    0.255408
    23  H    0.235627
    24  H    0.251193
    25  H    0.241485
 Sum of Mulliken charges =   1.00000

 Dipole moment (field-independent basis, Debye):
    X=              0.1771    Y=             -0.0018    Z=              0.0000  Tot=              0.1771
 Quadrupole moment (field-independent basis, Debye-Ang):
   XX=            -56.2612   YY=            -84.0132   ZZ=            -31.4646
   XY=              0.1914   XZ=              0.0000   YZ=              0.0000

 Normal termination of Gaussian 16 at Thu Jul 28 16:25:02 2022.
