 Gaussian 16, Revision C.01,
 Gaussian 16:  ES64L-G16RevC.01  3-Jul-2019

 ---------------------------------------------------------------
 #n M062X/6-311++G(d,p) TD(NStates=1) EmpiricalDispersion=GD3 SP
 ---------------------------------------------------------------

 ------
 SP_-50
 ------
 Symbolic Z-matrix:
 Charge =  1 Multiplicity = 1

                         Standard orientation:
 ---------------------------------------------------------------------
 Center     Atomic      Atomic             Coordinates (Angstroms)
 Number     Number       Type             X           Y           Z
 ---------------------------------------------------------------------
      1          6           0        2.493958   -1.360850    0.003283
      2          6           0        3.696737   -0.672600    0.007737
      3          6           0        3.676416    0.713255    0.007418
      4          6           0        2.456881    1.407230   -0.003505
      5          6           0       -2.455780    1.407943   -0.001802
      6          6           0       -3.672706    0.714332    0.008389
      7          6           0       -3.695704   -0.671509    0.007502
      8          6           0       -2.492254   -1.360085   -0.001283
      9          6           0       -0.007913   -1.453377   -0.003411
     10          6           0        0.000551    1.429281   -0.009110
     11          6           0        1.267602   -0.677215   -0.007756
     12          6           0        1.236148    0.730665   -0.004149
     13          6           0       -1.267983   -0.676845   -0.007221
     14          6           0       -1.236993    0.731014   -0.001716
     15          1           0        2.489187   -2.443998   -0.010484
     16          1           0        4.633578   -1.212427    0.004273
     17          1           0        4.611971    1.271667    0.004574
     18          1           0        2.461537    2.489690    0.009182
     19          1           0        0.000536    2.510324   -0.000530
     20          1           0       -2.460287    2.490395    0.012289
     21          1           0       -4.607227    1.273007    0.007377
     22          1           0       -4.631304   -1.211060    0.004120
     23          1           0       -2.487633   -2.443227   -0.016104
     24          1           0       -0.001700   -2.153511    0.869081
     25          1           0       -0.002416   -2.138282   -0.850025
 ---------------------------------------------------------------------

 SCF Done:  E(RM062X) =  -539.759814439     A.U. after   15 cycles

 Excitation energies and oscillator strengths:

 Excited State   1:      Singlet-A      2.8336 eV  437.55 nm  f=0.0293  <S**2>=0.000
      47 -> 48         0.70425
 This state for optimization and/or second-order correction.
 Total Energy, E(TD-HF/TD-DFT) =  -539.655682387
 Copying the excited state density for this state as the 1-particle RhoCI density.

 The electronic state is 1-A.
 Alpha  occ. eigenvalues --  -10.77672 -10.73267 -10.73169 -10.72377 -10.72372
 Alpha  occ. eigenvalues --  -10.71317 -10.71265 -10.70976 -10.70967 -10.70950
 Alpha  occ. eigenvalues --  -10.69909 -10.69872 -10.69681 -10.69633  -1.16495
 Alpha  occ. eigenvalues --   -1.12623  -1.07030  -1.05681  -1.01472  -1.00158
 Alpha  occ. eigenvalues --   -0.95842  -0.91040  -0.86429  -0.85929  -0.83823
 Alpha  occ. eigenvalues --   -0.78414  -0.76036  -0.74449  -0.69561  -0.69226
 Alpha  occ. eigenvalues --   -0.68496  -0.68138  -0.68010  -0.64857  -0.64386
 Alpha  occ. eigenvalues --   -0.62968  -0.61759  -0.60052  -0.59793  -0.59049
 Alpha  occ. eigenvalues --   -0.56881  -0.55180  -0.54773  -0.52500  -0.46741
 Alpha  occ. eigenvalues --   -0.46044  -0.44567
 Alpha virt. eigenvalues --   -0.26105  -0.14593  -0.14079  -0.12683  -0.11181
 Alpha virt. eigenvalues --   -0.10091  -0.09242  -0.08016  -0.07955  -0.07481
 Alpha virt. eigenvalues --   -0.07207  -0.07132  -0.05641  -0.05581  -0.05319

 Mulliken charges:
               1
     1  C    0.096065
     2  C   -0.411160
     3  C   -0.441240
     4  C    0.026533
     5  C    0.026621
     6  C   -0.441809
     7  C   -0.415328
     8  C    0.093161
     9  C   -0.335736
    10  C    0.099361
    11  C   -0.607286
    12  C    0.654446
    13  C   -0.619855
    14  C    0.656753
    15  H    0.236714
    16  H    0.256185
    17  H    0.251608
    18  H    0.221320
    19  H    0.190870
    20  H    0.221194
    21  H    0.251163
    22  H    0.255809
    23  H    0.237042
    24  H    0.250500
    25  H    0.247071
 Sum of Mulliken charges =   1.00000

 Dipole moment (field-independent basis, Debye):
    X=              0.0090    Y=              0.1842    Z=             -0.0006  Tot=              0.1845
 Quadrupole moment (field-independent basis, Debye-Ang):
   XX=            -31.2462   YY=            -56.2629   ZZ=            -84.0934
   XY=              0.0050   XZ=             -0.0086   YZ=              0.0709

 Normal termination of Gaussian 16 at Thu Jul 28 14:17:57 2022.
