 Gaussian 16, Revision C.01,
 Gaussian 16:  ES64L-G16RevC.01  3-Jul-2019

 ---------------------------------------------------------------
 #n M062X/6-311++G(d,p) TD(NStates=1) EmpiricalDispersion=GD3 SP
 ---------------------------------------------------------------

 ------
 SP_-25
 ------
 Symbolic Z-matrix:
 Charge =  1 Multiplicity = 1

                         Standard orientation:
 ---------------------------------------------------------------------
 Center     Atomic      Atomic             Coordinates (Angstroms)
 Number     Number       Type             X           Y           Z
 ---------------------------------------------------------------------
      1          6           0       -2.492626   -1.360487    0.000016
      2          6           0       -3.703343   -0.672074    0.002526
      3          6           0       -3.687226    0.713748    0.002695
      4          6           0       -2.465511    1.407491   -0.000778
      5          6           0        2.465351    1.407596   -0.001021
      6          6           0        3.686696    0.713904    0.002557
      7          6           0        3.703198   -0.671918    0.002561
      8          6           0        2.492384   -1.360383    0.000670
      9          6           0        0.001131   -1.453370   -0.001086
     10          6           0       -0.000080    1.429199   -0.003052
     11          6           0       -1.260116   -0.677088   -0.002456
     12          6           0       -1.237711    0.730781   -0.000813
     13          6           0        1.260169   -0.677034   -0.002530
     14          6           0        1.237831    0.730834   -0.001160
     15          1           0       -2.488069   -2.443695   -0.004814
     16          1           0       -4.638352   -1.211793    0.001395
     17          1           0       -4.609489    1.272250    0.002177
     18          1           0       -2.469852    2.490005    0.003776
     19          1           0       -0.000078    2.510273   -0.000202
     20          1           0        2.469673    2.490110    0.003332
     21          1           0        4.608810    1.272445    0.001779
     22          1           0        4.638029   -1.211597    0.001419
     23          1           0        2.487848   -2.443592   -0.004010
     24          1           0        0.000245   -2.144185   -0.856391
     25          1           0        0.000347   -2.147413    0.862776
 ---------------------------------------------------------------------

 SCF Done:  E(RM062X) =  -539.760062536     A.U. after   15 cycles

 Excitation energies and oscillator strengths:

 Excited State   1:      Singlet-A      2.8188 eV  439.86 nm  f=0.0285  <S**2>=0.000
      47 -> 48         0.70426
 This state for optimization and/or second-order correction.
 Total Energy, E(TD-HF/TD-DFT) =  -539.656475336
 Copying the excited state density for this state as the 1-particle RhoCI density.

 The electronic state is 1-A.
 Alpha  occ. eigenvalues --  -10.77663 -10.73255 -10.73241 -10.72457 -10.72455
 Alpha  occ. eigenvalues --  -10.71398 -10.71391 -10.71022 -10.71019 -10.70980
 Alpha  occ. eigenvalues --  -10.70003 -10.69997 -10.69624 -10.69618  -1.16426
 Alpha  occ. eigenvalues --   -1.12413  -1.06917  -1.05748  -1.01263  -1.00191
 Alpha  occ. eigenvalues --   -0.95762  -0.91061  -0.86416  -0.85893  -0.83814
 Alpha  occ. eigenvalues --   -0.78396  -0.76024  -0.74408  -0.69563  -0.69257
 Alpha  occ. eigenvalues --   -0.68518  -0.68208  -0.68120  -0.64700  -0.64251
 Alpha  occ. eigenvalues --   -0.63095  -0.61901  -0.59984  -0.59641  -0.59106
 Alpha  occ. eigenvalues --   -0.56903  -0.55227  -0.54857  -0.52417  -0.46589
 Alpha  occ. eigenvalues --   -0.46057  -0.44478
 Alpha virt. eigenvalues --   -0.26083  -0.14697  -0.14105  -0.12805  -0.11178
 Alpha virt. eigenvalues --   -0.10085  -0.09226  -0.07984  -0.07964  -0.07474
 Alpha virt. eigenvalues --   -0.07205  -0.07148  -0.05644  -0.05582  -0.05337

 Mulliken charges:
               1
     1  C    0.091276
     2  C   -0.404359
     3  C   -0.440040
     4  C    0.016500
     5  C    0.016307
     6  C   -0.440179
     7  C   -0.405088
     8  C    0.090808
     9  C   -0.329306
    10  C    0.092570
    11  C   -0.638446
    12  C    0.685124
    13  C   -0.639643
    14  C    0.685780
    15  H    0.237217
    16  H    0.256436
    17  H    0.248061
    18  H    0.222205
    19  H    0.190096
    20  H    0.222196
    21  H    0.247985
    22  H    0.256399
    23  H    0.237238
    24  H    0.249738
    25  H    0.251124
 Sum of Mulliken charges =   1.00000

 Dipole moment (field-independent basis, Debye):
    X=             -0.0013    Y=              0.1885    Z=              0.0002  Tot=              0.1886
 Quadrupole moment (field-independent basis, Debye-Ang):
   XX=            -31.0726   YY=            -56.2624   ZZ=            -84.1580
   XY=             -0.0007   XZ=             -0.0012   YZ=              0.0243

 Normal termination of Gaussian 16 at Thu Jul 28 14:47:20 2022.
