 Gaussian 16, Revision C.01,
 Gaussian 16:  ES64L-G16RevC.01  3-Jul-2019

 ---------------------------------------------------------------
 #n M062X/6-311++G(d,p) TD(NStates=1) EmpiricalDispersion=GD3 SP
 ---------------------------------------------------------------

 -----
 SP_25
 -----
 Symbolic Z-matrix:
 Charge =  1 Multiplicity = 1

                         Standard orientation:
 ---------------------------------------------------------------------
 Center     Atomic      Atomic             Coordinates (Angstroms)
 Number     Number       Type             X           Y           Z
 ---------------------------------------------------------------------
      1          6           0        2.494045   -1.360803    0.003330
      2          6           0        3.691231   -0.672560    0.015313
      3          6           0        3.666321    0.713379    0.015504
      4          6           0        2.449818    1.407532   -0.005838
      5          6           0       -2.449194    1.407931   -0.004864
      6          6           0       -3.664201    0.713988    0.016060
      7          6           0       -3.690635   -0.671938    0.015182
      8          6           0       -2.493066   -1.360350    0.000725
      9          6           0       -0.004520   -1.453407   -0.006673
     10          6           0        0.000310    1.429555   -0.018264
     11          6           0        1.273421   -0.677031   -0.015122
     12          6           0        1.235428    0.730851   -0.006588
     13          6           0       -1.273639   -0.676821   -0.014812
     14          6           0       -1.235914    0.731040   -0.005196
     15          1           0        2.489191   -2.443740   -0.024928
     16          1           0        4.628781   -1.212296    0.008458
     17          1           0        4.611292    1.271926    0.011107
     18          1           0        2.454630    2.489799    0.020511
     19          1           0        0.000302    2.510500   -0.001132
     20          1           0       -2.453919    2.490188    0.022287
     21          1           0       -4.608582    1.272680    0.012716
     22          1           0       -4.627475   -1.211516    0.008376
     23          1           0       -2.488302   -2.443279   -0.028135
     24          1           0       -0.000965   -2.158682    0.878596
     25          1           0       -0.001375   -2.133771   -0.840395
 ---------------------------------------------------------------------

 SCF Done:  E(RM062X) =  -539.758308718     A.U. after   15 cycles

 Excitation energies and oscillator strengths:

 Excited State   1:      Singlet-A      2.8422 eV  436.22 nm  f=0.0298  <S**2>=0.000
      47 -> 48         0.70423
 This state for optimization and/or second-order correction.
 Total Energy, E(TD-HF/TD-DFT) =  -539.653858183
 Copying the excited state density for this state as the 1-particle RhoCI density.

 The electronic state is 1-A.
 Alpha  occ. eigenvalues --  -10.77681 -10.73226 -10.73170 -10.72317 -10.72314
 Alpha  occ. eigenvalues --  -10.71229 -10.71199 -10.70971 -10.70918 -10.70909
 Alpha  occ. eigenvalues --  -10.69821 -10.69800 -10.69701 -10.69674  -1.16548
 Alpha  occ. eigenvalues --   -1.12780  -1.07119  -1.05625  -1.01638  -1.00122
 Alpha  occ. eigenvalues --   -0.95902  -0.91023  -0.86440  -0.85959  -0.83828
 Alpha  occ. eigenvalues --   -0.78435  -0.76040  -0.74480  -0.69565  -0.69226
 Alpha  occ. eigenvalues --   -0.68513  -0.68071  -0.67888  -0.64976  -0.64488
 Alpha  occ. eigenvalues --   -0.62847  -0.61657  -0.60086  -0.59905  -0.59002
 Alpha  occ. eigenvalues --   -0.56868  -0.55134  -0.54711  -0.52562  -0.46865
 Alpha  occ. eigenvalues --   -0.46022  -0.44627
 Alpha virt. eigenvalues --   -0.26125  -0.14529  -0.14062  -0.12599  -0.11183
 Alpha virt. eigenvalues --   -0.10098  -0.09253  -0.08053  -0.07940  -0.07485
 Alpha virt. eigenvalues --   -0.07219  -0.07111  -0.05638  -0.05581  -0.05307

 Mulliken charges:
               1
     1  C    0.090847
     2  C   -0.415452
     3  C   -0.441733
     4  C    0.051161
     5  C    0.052329
     6  C   -0.441927
     7  C   -0.417551
     8  C    0.089735
     9  C   -0.339397
    10  C    0.098699
    11  C   -0.570493
    12  C    0.602673
    13  C   -0.578378
    14  C    0.602695
    15  H    0.235963
    16  H    0.255809
    17  H    0.253794
    18  H    0.220305
    19  H    0.190638
    20  H    0.220215
    21  H    0.253584
    22  H    0.255540
    23  H    0.236238
    24  H    0.250957
    25  H    0.243751
 Sum of Mulliken charges =   1.00000

 Dipole moment (field-independent basis, Debye):
    X=              0.0051    Y=              0.1802    Z=             -0.0012  Tot=              0.1803
 Quadrupole moment (field-independent basis, Debye-Ang):
   XX=            -31.3765   YY=            -56.2623   ZZ=            -84.0453
   XY=              0.0028   XZ=             -0.0049   YZ=              0.1432

 Normal termination of Gaussian 16 at Thu Jul 28 15:20:51 2022.
