 Gaussian 16, Revision C.01,
 Gaussian 16:  ES64L-G16RevC.01  3-Jul-2019

 ---------------------------------------------------------------
 #n M062X/6-311++G(d,p) TD(NStates=1) EmpiricalDispersion=GD3 SP
 ---------------------------------------------------------------

 -------
 SP_-150
 -------
 Symbolic Z-matrix:
 Charge =  1 Multiplicity = 1

                         Standard orientation:
 ---------------------------------------------------------------------
 Center     Atomic      Atomic             Coordinates (Angstroms)
 Number     Number       Type             X           Y           Z
 ---------------------------------------------------------------------
      1          6           0       -2.491933   -1.360878    0.001416
      2          6           0       -3.715892   -0.672765    0.020263
      3          6           0       -3.709719    0.713251    0.021293
      4          6           0       -2.481682    1.407663   -0.006688
      5          6           0        2.481030    1.408101   -0.007659
      6          6           0        3.707604    0.713890    0.020743
      7          6           0        3.715324   -0.672137    0.020410
      8          6           0        2.490978   -1.360501    0.004040
      9          6           0        0.004528   -1.453439   -0.008757
     10          6           0       -0.000332    1.429839   -0.024390
     11          6           0       -1.246648   -0.676927   -0.019802
     12          6           0       -1.239637    0.730938   -0.007187
     13          6           0        1.246862   -0.676711   -0.020091
     14          6           0        1.240105    0.731173   -0.008572
     15          1           0       -2.487611   -2.443586   -0.036936
     16          1           0       -4.648892   -1.212468    0.011190
     17          1           0       -4.609720    1.271862    0.016632
     18          1           0       -2.485614    2.489717    0.029352
     19          1           0       -0.000323    2.510682   -0.001574
     20          1           0        2.484886    2.490170    0.027579
     21          1           0        4.607004    1.272672    0.015057
     22          1           0        4.647615   -1.211681    0.011296
     23          1           0        2.486732   -2.443221   -0.033711
     24          1           0        0.000994   -2.132547   -0.833964
     25          1           0        0.001402   -2.160588    0.884978
 ---------------------------------------------------------------------

 SCF Done:  E(RM062X) =  -539.755031839     A.U. after   15 cycles

 Excitation energies and oscillator strengths:

 Excited State   1:      Singlet-A      2.7838 eV  445.38 nm  f=0.0271  <S**2>=0.000
      47 -> 48         0.70427
 This state for optimization and/or second-order correction.
 Total Energy, E(TD-HF/TD-DFT) =  -539.652729234
 Copying the excited state density for this state as the 1-particle RhoCI density.

 The electronic state is 1-A.
 Alpha  occ. eigenvalues --  -10.77654 -10.73338 -10.73283 -10.72610 -10.72608
 Alpha  occ. eigenvalues --  -10.71595 -10.71565 -10.71137 -10.71127 -10.70981
 Alpha  occ. eigenvalues --  -10.70213 -10.70192 -10.69583 -10.69556  -1.16319
 Alpha  occ. eigenvalues --   -1.12040  -1.06738  -1.05854  -1.00960  -1.00173
 Alpha  occ. eigenvalues --   -0.95629  -0.91089  -0.86405  -0.85832  -0.83795
 Alpha  occ. eigenvalues --   -0.78391  -0.75984  -0.74332  -0.69608  -0.69407
 Alpha  occ. eigenvalues --   -0.68742  -0.68274  -0.68089  -0.64435  -0.64020
 Alpha  occ. eigenvalues --   -0.63231  -0.62126  -0.59822  -0.59359  -0.59189
 Alpha  occ. eigenvalues --   -0.56961  -0.55307  -0.54939  -0.52275  -0.46403
 Alpha  occ. eigenvalues --   -0.45988  -0.44302
 Alpha virt. eigenvalues --   -0.26060  -0.14928  -0.14159  -0.13040  -0.11177
 Alpha virt. eigenvalues --   -0.10078  -0.09199  -0.08038  -0.07890  -0.07461
 Alpha virt. eigenvalues --   -0.07246  -0.07133  -0.05649  -0.05584  -0.05376

 Mulliken charges:
               1
     1  C    0.056684
     2  C   -0.384954
     3  C   -0.442089
     4  C    0.079952
     5  C    0.078170
     6  C   -0.443315
     7  C   -0.388860
     8  C    0.054655
     9  C   -0.270606
    10  C    0.086047
    11  C   -0.594351
    12  C    0.576935
    13  C   -0.593661
    14  C    0.581143
    15  H    0.235116
    16  H    0.257269
    17  H    0.241820
    18  H    0.222506
    19  H    0.186376
    20  H    0.222523
    21  H    0.241439
    22  H    0.257234
    23  H    0.235017
    24  H    0.246819
    25  H    0.258131
 Sum of Mulliken charges =   1.00000

 Dipole moment (field-independent basis, Debye):
    X=             -0.0055    Y=              0.1927    Z=              0.0035  Tot=              0.1928
 Quadrupole moment (field-independent basis, Debye-Ang):
   XX=            -30.7705   YY=            -56.2567   ZZ=            -84.2714
   XY=             -0.0031   XZ=             -0.0049   YZ=              0.1931

 Normal termination of Gaussian 16 at Thu Jul 28 13:05:21 2022.
