 Gaussian 16, Revision C.01,
 Gaussian 16:  ES64L-G16RevC.01  3-Jul-2019

 ---------------------------------------------------------------
 #n M062X/6-311++G(d,p) TD(NStates=1) EmpiricalDispersion=GD3 SP
 ---------------------------------------------------------------

 ------
 SP_150
 ------
 Symbolic Z-matrix:
 Charge =  1 Multiplicity = 1

                         Standard orientation:
 ---------------------------------------------------------------------
 Center     Atomic      Atomic             Coordinates (Angstroms)
 Number     Number       Type             X           Y           Z
 ---------------------------------------------------------------------
      1          6           0        2.492281   -1.360053   -0.001227
      2          6           0        3.693866   -0.671481    0.010042
      3          6           0        3.669341    0.714378    0.011048
      4          6           0        2.453429    1.408029   -0.002642
      5          6           0       -2.454683    1.407219   -0.004589
      6          6           0       -3.673581    0.713152    0.009937
      7          6           0       -3.695051   -0.672728    0.010309
      8          6           0       -2.494232   -1.360938    0.003989
      9          6           0        0.009043   -1.453386   -0.004280
     10          6           0       -0.000627    1.429351   -0.012225
     11          6           0        1.269923   -0.676792   -0.009661
     12          6           0        1.236754    0.731063   -0.002566
     13          6           0       -1.269487   -0.677215   -0.010275
     14          6           0       -1.235786    0.730671   -0.005348
     15          1           0        2.487634   -2.443139   -0.020839
     16          1           0        4.629702   -1.211005    0.005551
     17          1           0        4.607001    1.273090    0.009500
     18          1           0        2.457986    2.490429    0.015964
     19          1           0       -0.000610    2.510370   -0.000834
     20          1           0       -2.459413    2.489632    0.012413
     21          1           0       -4.612422    1.271566    0.006292
     22          1           0       -4.632305   -1.212566    0.005723
     23          1           0       -2.489411   -2.444034   -0.014419
     24          1           0        0.001938   -2.151329    0.872358
     25          1           0        0.002758   -2.140635   -0.846784
 ---------------------------------------------------------------------

 SCF Done:  E(RM062X) =  -539.759520622     A.U. after   15 cycles

 Excitation energies and oscillator strengths:

 Excited State   1:      Singlet-A      2.8367 eV  437.07 nm  f=0.0294  <S**2>=0.000
      47 -> 48         0.70424
 This state for optimization and/or second-order correction.
 Total Energy, E(TD-HF/TD-DFT) =  -539.655272945
 Copying the excited state density for this state as the 1-particle RhoCI density.

 The electronic state is 1-A.
 Alpha  occ. eigenvalues --  -10.77675 -10.73267 -10.73155 -10.72357 -10.72351
 Alpha  occ. eigenvalues --  -10.71295 -10.71235 -10.70976 -10.70953 -10.70934
 Alpha  occ. eigenvalues --  -10.69885 -10.69842 -10.69694 -10.69640  -1.16512
 Alpha  occ. eigenvalues --   -1.12676  -1.07060  -1.05663  -1.01526  -1.00146
 Alpha  occ. eigenvalues --   -0.95861  -0.91034  -0.86433  -0.85938  -0.83824
 Alpha  occ. eigenvalues --   -0.78420  -0.76038  -0.74459  -0.69560  -0.69224
 Alpha  occ. eigenvalues --   -0.68496  -0.68117  -0.67978  -0.64897  -0.64420
 Alpha  occ. eigenvalues --   -0.62931  -0.61723  -0.60066  -0.59830  -0.59034
 Alpha  occ. eigenvalues --   -0.56876  -0.55169  -0.54749  -0.52520  -0.46782
 Alpha  occ. eigenvalues --   -0.46038  -0.44587
 Alpha virt. eigenvalues --   -0.26111  -0.14570  -0.14073  -0.12655  -0.11182
 Alpha virt. eigenvalues --   -0.10093  -0.09245  -0.08027  -0.07951  -0.07482
 Alpha virt. eigenvalues --   -0.07213  -0.07123  -0.05640  -0.05581  -0.05314

 Mulliken charges:
               1
     1  C    0.092222
     2  C   -0.417002
     3  C   -0.442232
     4  C    0.034989
     5  C    0.034208
     6  C   -0.441656
     7  C   -0.412464
     8  C    0.095357
     9  C   -0.336153
    10  C    0.100575
    11  C   -0.609350
    12  C    0.639309
    13  C   -0.594289
    14  C    0.637534
    15  H    0.236834
    16  H    0.255666
    17  H    0.251936
    18  H    0.220880
    19  H    0.190857
    20  H    0.221038
    21  H    0.252416
    22  H    0.256129
    23  H    0.236406
    24  H    0.251166
    25  H    0.245624
 Sum of Mulliken charges =   1.00000

 Dipole moment (field-independent basis, Debye):
    X=             -0.0103    Y=              0.1829    Z=              0.0002  Tot=              0.1832
 Quadrupole moment (field-independent basis, Debye-Ang):
   XX=            -31.2901   YY=            -56.2629   ZZ=            -84.0775
   XY=             -0.0057   XZ=              0.0098   YZ=              0.0974

 Normal termination of Gaussian 16 at Thu Jul 28 17:17:44 2022.
