 Gaussian 16, Revision C.01,
 Gaussian 16:  ES64L-G16RevC.01  3-Jul-2019

 ---------------------------------------------------------------
 #n M062X/6-311++G(d,p) TD(NStates=1) EmpiricalDispersion=GD3 SP
 ---------------------------------------------------------------

 -------
 SP_-150
 -------
 Symbolic Z-matrix:
 Charge =  1 Multiplicity = 1

                         Standard orientation:
 ---------------------------------------------------------------------
 Center     Atomic      Atomic             Coordinates (Angstroms)
 Number     Number       Type             X           Y           Z
 ---------------------------------------------------------------------
      1          6           0       -2.493290   -1.360922   -0.001898
      2          6           0       -3.707447   -0.672758    0.007477
      3          6           0       -3.695543    0.713087    0.008484
      4          6           0       -2.470703    1.407109   -0.001632
      5          6           0        2.469259    1.408063   -0.003819
      6          6           0        3.690779    0.714500    0.007241
      7          6           0        3.706145   -0.671350    0.007795
      8          6           0        2.491123   -1.360013    0.003991
      9          6           0        0.010182   -1.453378   -0.003171
     10          6           0       -0.000729    1.429280   -0.009183
     11          6           0       -1.256075   -0.677272   -0.007140
     12          6           0       -1.237836    0.730594   -0.001416
     13          6           0        1.256560   -0.676789   -0.007806
     14          6           0        1.238904    0.731085   -0.004538
     15          1           0       -2.488729   -2.444063   -0.016824
     16          1           0       -4.642514   -1.212626    0.004127
     17          1           0       -4.611978    1.271448    0.007696
     18          1           0       -2.474999    2.489559    0.012614
     19          1           0       -0.000709    2.510324   -0.000649
     20          1           0        2.473375    2.490527    0.008622
     21          1           0        4.605871    1.273226    0.004126
     22          1           0        4.639618   -1.210861    0.004347
     23          1           0        2.486742   -2.443164   -0.009580
     24          1           0        0.002214   -2.142718   -0.849978
     25          1           0        0.003133   -2.149074    0.869187
 ---------------------------------------------------------------------

 SCF Done:  E(RM062X) =  -539.759243320     A.U. after   15 cycles

 Excitation energies and oscillator strengths:

 Excited State   1:      Singlet-A      2.8098 eV  441.25 nm  f=0.0281  <S**2>=0.000
      47 -> 48         0.70426
 This state for optimization and/or second-order correction.
 Total Energy, E(TD-HF/TD-DFT) =  -539.655983300
 Copying the excited state density for this state as the 1-particle RhoCI density.

 The electronic state is 1-A.
 Alpha  occ. eigenvalues --  -10.77659 -10.73327 -10.73202 -10.72502 -10.72496
 Alpha  occ. eigenvalues --  -10.71480 -10.71414 -10.71063 -10.71041 -10.70982
 Alpha  occ. eigenvalues --  -10.70080 -10.70033 -10.69635 -10.69574  -1.16395
 Alpha  occ. eigenvalues --   -1.12307  -1.06863  -1.05783  -1.01166  -1.00196
 Alpha  occ. eigenvalues --   -0.95723  -0.91070  -0.86412  -0.85873  -0.83809
 Alpha  occ. eigenvalues --   -0.78391  -0.76016  -0.74386  -0.69572  -0.69287
 Alpha  occ. eigenvalues --   -0.68560  -0.68236  -0.68140  -0.64622  -0.64185
 Alpha  occ. eigenvalues --   -0.63150  -0.61962  -0.59945  -0.59561  -0.59133
 Alpha  occ. eigenvalues --   -0.56917  -0.55261  -0.54873  -0.52376  -0.46522
 Alpha  occ. eigenvalues --   -0.46052  -0.44430
 Alpha virt. eigenvalues --   -0.26075  -0.14757  -0.14119  -0.12869  -0.11178
 Alpha virt. eigenvalues --   -0.10082  -0.09218  -0.07996  -0.07944  -0.07471
 Alpha virt. eigenvalues --   -0.07213  -0.07146  -0.05645  -0.05582  -0.05348

 Mulliken charges:
               1
     1  C    0.086287
     2  C   -0.397272
     3  C   -0.440144
     4  C    0.029180
     5  C    0.026963
     6  C   -0.441823
     7  C   -0.404574
     8  C    0.082215
     9  C   -0.313456
    10  C    0.093501
    11  C   -0.632747
    12  C    0.664369
    13  C   -0.639811
    14  C    0.671295
    15  H    0.236775
    16  H    0.256794
    17  H    0.246617
    18  H    0.222494
    19  H    0.189284
    20  H    0.222453
    21  H    0.245881
    22  H    0.256539
    23  H    0.236852
    24  H    0.248881
    25  H    0.253448
 Sum of Mulliken charges =   1.00000

 Dipole moment (field-independent basis, Debye):
    X=             -0.0121    Y=              0.1901    Z=              0.0011  Tot=              0.1905
 Quadrupole moment (field-independent basis, Debye-Ang):
   XX=            -30.9860   YY=            -56.2612   ZZ=            -84.1904
   XY=             -0.0068   XZ=             -0.0111   YZ=              0.0739

 Normal termination of Gaussian 16 at Thu Jul 28 12:56:59 2022.
