 Gaussian 16, Revision C.01,
 Gaussian 16:  ES64L-G16RevC.01  3-Jul-2019

 ---------------------------------------------------------------
 #n M062X/6-311++G(d,p) TD(NStates=1) EmpiricalDispersion=GD3 SP
 ---------------------------------------------------------------

 -----
 SP_75
 -----
 Symbolic Z-matrix:
 Charge =  1 Multiplicity = 1

                         Standard orientation:
 ---------------------------------------------------------------------
 Center     Atomic      Atomic             Coordinates (Angstroms)
 Number     Number       Type             X           Y           Z
 ---------------------------------------------------------------------
      1          6           0        2.493011   -1.360385    0.000714
      2          6           0        3.694310   -0.671949    0.010137
      3          6           0        3.670931    0.713918    0.010648
      4          6           0        2.453899    1.407725   -0.003346
      5          6           0       -2.454213    1.407523   -0.003832
      6          6           0       -3.671991    0.713612    0.010370
      7          6           0       -3.694606   -0.672260    0.010204
      8          6           0       -2.493499   -1.360606    0.002017
      9          6           0        0.002261   -1.453387   -0.004376
     10          6           0       -0.000157    1.429352   -0.012198
     11          6           0        1.269760   -0.676951   -0.009897
     12          6           0        1.236392    0.730916   -0.003593
     13          6           0       -1.269650   -0.677056   -0.010050
     14          6           0       -1.236150    0.730818   -0.004289
     15          1           0        2.488299   -2.443474   -0.018463
     16          1           0        4.630678   -1.211590    0.005602
     17          1           0        4.609034    1.272519    0.008322
     18          1           0        2.458522    2.490130    0.014675
     19          1           0       -0.000152    2.510370   -0.000790
     20          1           0       -2.458878    2.489931    0.013787
     21          1           0       -4.610390    1.272138    0.007520
     22          1           0       -4.631328   -1.211980    0.005645
     23          1           0       -2.488743   -2.443698   -0.016858
     24          1           0        0.000485   -2.152992    0.872314
     25          1           0        0.000690   -2.138972   -0.846799
 ---------------------------------------------------------------------

 SCF Done:  E(RM062X) =  -539.759555252     A.U. after   15 cycles

 Excitation energies and oscillator strengths:

 Excited State   1:      Singlet-A      2.8368 eV  437.06 nm  f=0.0294  <S**2>=0.000
      47 -> 48         0.70424
 This state for optimization and/or second-order correction.
 Total Energy, E(TD-HF/TD-DFT) =  -539.655306319
 Copying the excited state density for this state as the 1-particle RhoCI density.

 The electronic state is 1-A.
 Alpha  occ. eigenvalues --  -10.77675 -10.73225 -10.73197 -10.72355 -10.72353
 Alpha  occ. eigenvalues --  -10.71273 -10.71258 -10.70975 -10.70946 -10.70941
 Alpha  occ. eigenvalues --  -10.69869 -10.69858 -10.69673 -10.69660  -1.16512
 Alpha  occ. eigenvalues --   -1.12676  -1.07060  -1.05661  -1.01526  -1.00147
 Alpha  occ. eigenvalues --   -0.95861  -0.91034  -0.86431  -0.85940  -0.83824
 Alpha  occ. eigenvalues --   -0.78420  -0.76038  -0.74459  -0.69559  -0.69224
 Alpha  occ. eigenvalues --   -0.68498  -0.68117  -0.67975  -0.64897  -0.64419
 Alpha  occ. eigenvalues --   -0.62927  -0.61728  -0.60065  -0.59831  -0.59034
 Alpha  occ. eigenvalues --   -0.56876  -0.55161  -0.54759  -0.52520  -0.46782
 Alpha  occ. eigenvalues --   -0.46038  -0.44588
 Alpha virt. eigenvalues --   -0.26111  -0.14570  -0.14073  -0.12654  -0.11182
 Alpha virt. eigenvalues --   -0.10093  -0.09245  -0.08027  -0.07951  -0.07482
 Alpha virt. eigenvalues --   -0.07212  -0.07124  -0.05640  -0.05581  -0.05314

 Mulliken charges:
               1
     1  C    0.093386
     2  C   -0.415460
     3  C   -0.442050
     4  C    0.034756
     5  C    0.034561
     6  C   -0.441906
     7  C   -0.414322
     8  C    0.094157
     9  C   -0.335698
    10  C    0.100653
    11  C   -0.603799
    12  C    0.638661
    13  C   -0.600036
    14  C    0.638218
    15  H    0.236681
    16  H    0.255837
    17  H    0.252118
    18  H    0.220938
    19  H    0.190853
    20  H    0.220977
    21  H    0.252238
    22  H    0.255953
    23  H    0.236574
    24  H    0.250948
    25  H    0.245763
 Sum of Mulliken charges =   1.00000

 Dipole moment (field-independent basis, Debye):
    X=             -0.0026    Y=              0.1830    Z=             -0.0002  Tot=              0.1830
 Quadrupole moment (field-independent basis, Debye-Ang):
   XX=            -31.2898   YY=            -56.2630   ZZ=            -84.0774
   XY=             -0.0014   XZ=              0.0024   YZ=              0.0964

 Normal termination of Gaussian 16 at Thu Jul 28 16:09:04 2022.
