 Gaussian 16, Revision C.01,
 Gaussian 16:  ES64L-G16RevC.01  3-Jul-2019

 ---------------------------------------------------------------
 #n M062X/6-311++G(d,p) TD(NStates=1) EmpiricalDispersion=GD3 SP
 ---------------------------------------------------------------

 ------
 SP_150
 ------
 Symbolic Z-matrix:
 Charge =  1 Multiplicity = 1

                         Standard orientation:
 ---------------------------------------------------------------------
 Center     Atomic      Atomic             Coordinates (Angstroms)
 Number     Number       Type             X           Y           Z
 ---------------------------------------------------------------------
      1          6           0        2.493093   -1.360342    0.000764
      2          6           0        3.688797   -0.671954    0.017715
      3          6           0        3.660835    0.714011    0.018734
      4          6           0        2.446843    1.408049   -0.005676
      5          6           0       -2.447619    1.407554   -0.006894
      6          6           0       -3.663487    0.713252    0.018038
      7          6           0       -3.689545   -0.672731    0.017878
      8          6           0       -2.494318   -1.360916    0.004018
      9          6           0        0.005650   -1.453423   -0.007636
     10          6           0       -0.000386    1.429687   -0.021350
     11          6           0        1.275580   -0.676746   -0.017257
     12          6           0        1.235676    0.731113   -0.006029
     13          6           0       -1.275305   -0.677008   -0.017647
     14          6           0       -1.235066    0.730880   -0.007770
     15          1           0        2.488303   -2.443169   -0.032903
     16          1           0        4.625873   -1.211497    0.009792
     17          1           0        4.608356    1.272755    0.014864
     18          1           0        2.451619    2.490211    0.026006
     19          1           0       -0.000375    2.510585   -0.001390
     20          1           0       -2.452506    2.489730    0.023786
     21          1           0       -4.611742    1.271818    0.012850
     22          1           0       -4.627508   -1.212471    0.009892
     23          1           0       -2.489416   -2.443753   -0.028896
     24          1           0        0.001204   -2.158237    0.881833
     25          1           0        0.001717   -2.134532   -0.837176
 ---------------------------------------------------------------------

 SCF Done:  E(RM062X) =  -539.757624499     A.U. after   15 cycles

 Excitation energies and oscillator strengths:

 Excited State   1:      Singlet-A      2.8447 eV  435.85 nm  f=0.0299  <S**2>=0.000
      47 -> 48         0.70422
 This state for optimization and/or second-order correction.
 Total Energy, E(TD-HF/TD-DFT) =  -539.653084625
 Copying the excited state density for this state as the 1-particle RhoCI density.

 The electronic state is 1-A.
 Alpha  occ. eigenvalues --  -10.77684 -10.73227 -10.73157 -10.72298 -10.72294
 Alpha  occ. eigenvalues --  -10.71207 -10.71170 -10.70971 -10.70904 -10.70893
 Alpha  occ. eigenvalues --  -10.69798 -10.69771 -10.69715 -10.69681  -1.16567
 Alpha  occ. eigenvalues --   -1.12832  -1.07150  -1.05606  -1.01695  -1.00107
 Alpha  occ. eigenvalues --   -0.95921  -0.91016  -0.86444  -0.85969  -0.83829
 Alpha  occ. eigenvalues --   -0.78442  -0.76041  -0.74490  -0.69565  -0.69230
 Alpha  occ. eigenvalues --   -0.68518  -0.68047  -0.67849  -0.65016  -0.64522
 Alpha  occ. eigenvalues --   -0.62804  -0.61621  -0.60096  -0.59941  -0.58985
 Alpha  occ. eigenvalues --   -0.56864  -0.55121  -0.54686  -0.52583  -0.46907
 Alpha  occ. eigenvalues --   -0.46012  -0.44646
 Alpha virt. eigenvalues --   -0.26132  -0.14509  -0.14057  -0.12572  -0.11184
 Alpha virt. eigenvalues --   -0.10100  -0.09257  -0.08065  -0.07936  -0.07487
 Alpha virt. eigenvalues --   -0.07225  -0.07102  -0.05638  -0.05582  -0.05303

 Mulliken charges:
               1
     1  C    0.088202
     2  C   -0.417853
     3  C   -0.441397
     4  C    0.061074
     5  C    0.059119
     6  C   -0.441226
     7  C   -0.415315
     8  C    0.089336
     9  C   -0.344427
    10  C    0.095857
    11  C   -0.565394
    12  C    0.585735
    13  C   -0.555469
    14  C    0.586187
    15  H    0.236042
    16  H    0.255368
    17  H    0.254289
    18  H    0.219797
    19  H    0.190414
    20  H    0.219914
    21  H    0.254531
    22  H    0.255728
    23  H    0.235661
    24  H    0.251355
    25  H    0.242471
 Sum of Mulliken charges =   1.00000

 Dipole moment (field-independent basis, Debye):
    X=             -0.0063    Y=              0.1786    Z=             -0.0010  Tot=              0.1788
 Quadrupole moment (field-independent basis, Debye-Ang):
   XX=            -31.4209   YY=            -56.2619   ZZ=            -84.0294
   XY=             -0.0035   XZ=              0.0061   YZ=              0.1685

 Normal termination of Gaussian 16 at Thu Jul 28 17:12:42 2022.
