 Gaussian 16, Revision C.01,
 Gaussian 16:  ES64L-G16RevC.01  3-Jul-2019

 ---------------------------------------------------------------
 #n M062X/6-311++G(d,p) TD(NStates=1) EmpiricalDispersion=GD3 SP
 ---------------------------------------------------------------

 ------
 SP_-75
 ------
 Symbolic Z-matrix:
 Charge =  1 Multiplicity = 1

                         Standard orientation:
 ---------------------------------------------------------------------
 Center     Atomic      Atomic             Coordinates (Angstroms)
 Number     Number       Type             X           Y           Z
 ---------------------------------------------------------------------
      1          6           0        2.493655   -1.360808    0.002605
      2          6           0        3.700259   -0.672543    0.002655
      3          6           0        3.682615    0.713283    0.002162
      4          6           0        2.461435    1.407182   -0.001715
      5          6           0       -2.460327    1.407905   -0.000013
      6          6           0       -3.678907    0.714368    0.003132
      7          6           0       -3.699233   -0.671450    0.002415
      8          6           0       -2.491957   -1.360062   -0.001965
      9          6           0       -0.007916   -1.453369   -0.001208
     10          6           0        0.000557    1.429199   -0.003016
     11          6           0        1.263778   -0.677247   -0.002765
     12          6           0        1.236751    0.730628   -0.002181
     13          6           0       -1.264157   -0.676875   -0.002236
     14          6           0       -1.237591    0.730988    0.000251
     15          1           0        2.488960   -2.444017   -0.001646
     16          1           0        4.636449   -1.212380    0.001467
     17          1           0        4.611747    1.271670    0.000613
     18          1           0        2.465964    2.489697    0.002060
     19          1           0        0.000541    2.510272   -0.000142
     20          1           0       -2.464710    2.490417    0.005166
     21          1           0       -4.607001    1.273025    0.003408
     22          1           0       -4.634182   -1.211011    0.001308
     23          1           0       -2.487409   -2.443270   -0.007271
     24          1           0       -0.001707   -2.149631    0.862732
     25          1           0       -0.002423   -2.141967   -0.856425
 ---------------------------------------------------------------------

 SCF Done:  E(RM062X) =  -539.760185749     A.U. after   15 cycles

 Excitation energies and oscillator strengths:

 Excited State   1:      Singlet-A      2.8266 eV  438.63 nm  f=0.0289  <S**2>=0.000
      47 -> 48         0.70425
 This state for optimization and/or second-order correction.
 Total Energy, E(TD-HF/TD-DFT) =  -539.656309276
 Copying the excited state density for this state as the 1-particle RhoCI density.

 The electronic state is 1-A.
 Alpha  occ. eigenvalues --  -10.77667 -10.73281 -10.73184 -10.72417 -10.72412
 Alpha  occ. eigenvalues --  -10.71368 -10.71317 -10.70998 -10.70981 -10.70978
 Alpha  occ. eigenvalues --  -10.69963 -10.69926 -10.69662 -10.69615  -1.16460
 Alpha  occ. eigenvalues --   -1.12518  -1.06973  -1.05716  -1.01365  -1.00176
 Alpha  occ. eigenvalues --   -0.95802  -0.91051  -0.86422  -0.85910  -0.83818
 Alpha  occ. eigenvalues --   -0.78404  -0.76031  -0.74429  -0.69561  -0.69236
 Alpha  occ. eigenvalues --   -0.68497  -0.68176  -0.68077  -0.64778  -0.64319
 Alpha  occ. eigenvalues --   -0.63037  -0.61829  -0.60021  -0.59717  -0.59079
 Alpha  occ. eigenvalues --   -0.56891  -0.55207  -0.54813  -0.52458  -0.46663
 Alpha  occ. eigenvalues --   -0.46054  -0.44524
 Alpha virt. eigenvalues --   -0.26093  -0.14643  -0.14091  -0.12743  -0.11179
 Alpha virt. eigenvalues --   -0.10088  -0.09234  -0.07992  -0.07966  -0.07477
 Alpha virt. eigenvalues --   -0.07203  -0.07142  -0.05642  -0.05581  -0.05327

 Mulliken charges:
               1
     1  C    0.096056
     2  C   -0.406614
     3  C   -0.440042
     4  C    0.016374
     5  C    0.015559
     6  C   -0.440768
     7  C   -0.411207
     8  C    0.092864
     9  C   -0.336183
    10  C    0.094894
    11  C   -0.625742
    12  C    0.678946
    13  C   -0.636559
    14  C    0.682560
    15  H    0.237113
    16  H    0.256356
    17  H    0.249984
    18  H    0.221835
    19  H    0.190641
    20  H    0.221738
    21  H    0.249493
    22  H    0.256041
    23  H    0.237350
    24  H    0.250103
    25  H    0.249208
 Sum of Mulliken charges =   1.00000

 Dipole moment (field-independent basis, Debye):
    X=              0.0091    Y=              0.1865    Z=             -0.0004  Tot=              0.1867
 Quadrupole moment (field-independent basis, Debye-Ang):
   XX=            -31.1595   YY=            -56.2628   ZZ=            -84.1257
   XY=              0.0051   XZ=             -0.0086   YZ=              0.0228

 Normal termination of Gaussian 16 at Thu Jul 28 13:58:38 2022.
