 Gaussian 16, Revision C.01,
 Gaussian 16:  ES64L-G16RevC.01  3-Jul-2019

 ---------------------------------------------------------------
 #n M062X/6-311++G(d,p) TD(NStates=1) EmpiricalDispersion=GD3 SP
 ---------------------------------------------------------------

 ------
 SP_125
 ------
 Symbolic Z-matrix:
 Charge =  1 Multiplicity = 1

                         Standard orientation:
 ---------------------------------------------------------------------
 Center     Atomic      Atomic             Coordinates (Angstroms)
 Number     Number       Type             X           Y           Z
 ---------------------------------------------------------------------
      1          6           0       -2.491179   -1.359865    0.003907
      2          6           0       -3.702470   -0.671137    0.002724
      3          6           0       -3.684049    0.714683    0.001899
      4          6           0       -2.464554    1.408119   -0.002183
      5          6           0        2.466307    1.406968    0.000491
      6          6           0        3.689873    0.712967    0.003420
      7          6           0        3.704072   -0.672856    0.002341
      8          6           0        2.493837   -1.361006   -0.003284
      9          6           0       -0.012442   -1.453367   -0.001280
     10          6           0        0.000883    1.429199   -0.002998
     11          6           0       -1.260439   -0.676767   -0.002916
     12          6           0       -1.238426    0.731100   -0.002865
     13          6           0        1.259845   -0.677355   -0.002093
     14          6           0        1.237114    0.730516    0.000954
     15          1           0       -2.486745   -2.443075   -0.000054
     16          1           0       -4.636416   -1.210619    0.001511
     17          1           0       -4.605418    1.273422   -0.000159
     18          1           0       -2.468772    2.490636    0.001201
     19          1           0        0.000859    2.510272   -0.000114
     20          1           0        2.470751    2.489478    0.006081
     21          1           0        4.612880    1.271271    0.004218
     22          1           0        4.639967   -1.212772    0.001251
     23          1           0        2.489178   -2.444211   -0.008901
     24          1           0       -0.002693   -2.140858   -0.856442
     25          1           0       -0.003820   -2.150739    0.862709
 ---------------------------------------------------------------------

 SCF Done:  E(RM062X) =  -539.759870541     A.U. after   15 cycles

 Excitation energies and oscillator strengths:

 Excited State   1:      Singlet-A      2.8186 eV  439.87 nm  f=0.0285  <S**2>=0.000
      47 -> 48         0.70426
 This state for optimization and/or second-order correction.
 Total Energy, E(TD-HF/TD-DFT) =  -539.656287318
 Copying the excited state density for this state as the 1-particle RhoCI density.

 The electronic state is 1-A.
 Alpha  occ. eigenvalues --  -10.77663 -10.73324 -10.73171 -10.72460 -10.72453
 Alpha  occ. eigenvalues --  -10.71435 -10.71354 -10.71033 -10.71007 -10.70980
 Alpha  occ. eigenvalues --  -10.70030 -10.69971 -10.69658 -10.69584  -1.16427
 Alpha  occ. eigenvalues --   -1.12413  -1.06917  -1.05753  -1.01263  -1.00188
 Alpha  occ. eigenvalues --   -0.95762  -0.91061  -0.86418  -0.85890  -0.83814
 Alpha  occ. eigenvalues --   -0.78396  -0.76025  -0.74408  -0.69568  -0.69256
 Alpha  occ. eigenvalues --   -0.68519  -0.68210  -0.68119  -0.64699  -0.64253
 Alpha  occ. eigenvalues --   -0.63101  -0.61892  -0.59986  -0.59638  -0.59107
 Alpha  occ. eigenvalues --   -0.56903  -0.55241  -0.54836  -0.52417  -0.46589
 Alpha  occ. eigenvalues --   -0.46057  -0.44478
 Alpha virt. eigenvalues --   -0.26083  -0.14698  -0.14105  -0.12805  -0.11178
 Alpha virt. eigenvalues --   -0.10085  -0.09226  -0.07985  -0.07963  -0.07474
 Alpha virt. eigenvalues --   -0.07204  -0.07149  -0.05644  -0.05582  -0.05337

 Mulliken charges:
               1
     1  C    0.088168
     2  C   -0.408455
     3  C   -0.440725
     4  C    0.014795
     5  C    0.016914
     6  C   -0.439209
     7  C   -0.400488
     8  C    0.093465
     9  C   -0.329791
    10  C    0.092022
    11  C   -0.645169
    12  C    0.689479
    13  C   -0.631970
    14  C    0.682253
    15  H    0.237338
    16  H    0.256222
    17  H    0.247601
    18  H    0.222145
    19  H    0.190120
    20  H    0.222244
    21  H    0.248439
    22  H    0.256623
    23  H    0.237106
    24  H    0.250093
    25  H    0.250781
 Sum of Mulliken charges =   1.00000

 Dipole moment (field-independent basis, Debye):
    X=              0.0146    Y=              0.1884    Z=             -0.0006  Tot=              0.1890
 Quadrupole moment (field-independent basis, Debye-Ang):
   XX=            -31.0726   YY=            -56.2620   ZZ=            -84.1580
   XY=              0.0081   XZ=              0.0135   YZ=              0.0221

 Normal termination of Gaussian 16 at Thu Jul 28 17:03:26 2022.
