 Gaussian 16, Revision C.01,
 Gaussian 16:  ES64L-G16RevC.01  3-Jul-2019

 ---------------------------------------------------------------
 #n M062X/6-311++G(d,p) TD(NStates=1) EmpiricalDispersion=GD3 SP
 ---------------------------------------------------------------

 ------
 SP_150
 ------
 Symbolic Z-matrix:
 Charge =  1 Multiplicity = 1

                         Standard orientation:
 ---------------------------------------------------------------------
 Center     Atomic      Atomic             Coordinates (Angstroms)
 Number     Number       Type             X           Y           Z
 ---------------------------------------------------------------------
      1          6           0        2.491474   -1.359849   -0.003223
      2          6           0        3.698940   -0.671138    0.002364
      3          6           0        3.677848    0.714677    0.003360
      4          6           0        2.460010    1.408111    0.000393
      5          6           0       -2.461752    1.406975   -0.002282
      6          6           0       -3.683675    0.712973    0.001836
      7          6           0       -3.700553   -0.672855    0.002740
      8          6           0       -2.494142   -1.361021    0.003960
      9          6           0        0.012439   -1.453368   -0.000924
     10          6           0       -0.000875    1.429199   -0.003097
     11          6           0        1.264266   -0.676769   -0.002068
     12          6           0        1.237830    0.731091    0.000898
     13          6           0       -1.263669   -0.677353   -0.002899
     14          6           0       -1.236510    0.730525   -0.002924
     15          1           0        2.486968   -2.443057   -0.008778
     16          1           0        4.633535   -1.210620    0.001304
     17          1           0        4.605645    1.273411    0.004131
     18          1           0        2.464350    2.490624    0.005922
     19          1           0       -0.000851    2.510272   -0.000274
     20          1           0       -2.466322    2.489491    0.001042
     21          1           0       -4.613103    1.271283   -0.000260
     22          1           0       -4.637098   -1.212771    0.001554
     23          1           0       -2.489405   -2.444230    0.000061
     24          1           0        0.002682   -2.144640    0.862830
     25          1           0        0.003809   -2.146956   -0.856348
 ---------------------------------------------------------------------

 SCF Done:  E(RM062X) =  -539.760121198     A.U. after   15 cycles

 Excitation energies and oscillator strengths:

 Excited State   1:      Singlet-A      2.8266 eV  438.64 nm  f=0.0289  <S**2>=0.000
      47 -> 48         0.70425
 This state for optimization and/or second-order correction.
 Total Energy, E(TD-HF/TD-DFT) =  -539.656246483
 Copying the excited state density for this state as the 1-particle RhoCI density.

 The electronic state is 1-A.
 Alpha  occ. eigenvalues --  -10.77667 -10.73308 -10.73156 -10.72419 -10.72411
 Alpha  occ. eigenvalues --  -10.71383 -10.71302 -10.71002 -10.70980 -10.70976
 Alpha  occ. eigenvalues --  -10.69974 -10.69915 -10.69676 -10.69601  -1.16461
 Alpha  occ. eigenvalues --   -1.12518  -1.06973  -1.05719  -1.01365  -1.00175
 Alpha  occ. eigenvalues --   -0.95801  -0.91050  -0.86424  -0.85908  -0.83819
 Alpha  occ. eigenvalues --   -0.78403  -0.76032  -0.74428  -0.69562  -0.69236
 Alpha  occ. eigenvalues --   -0.68495  -0.68177  -0.68079  -0.64778  -0.64320
 Alpha  occ. eigenvalues --   -0.63041  -0.61823  -0.60022  -0.59716  -0.59079
 Alpha  occ. eigenvalues --   -0.56891  -0.55216  -0.54801  -0.52458  -0.46663
 Alpha  occ. eigenvalues --   -0.46053  -0.44523
 Alpha virt. eigenvalues --   -0.26093  -0.14643  -0.14092  -0.12743  -0.11179
 Alpha virt. eigenvalues --   -0.10088  -0.09234  -0.07991  -0.07968  -0.07477
 Alpha virt. eigenvalues --   -0.07204  -0.07141  -0.05642  -0.05581  -0.05327

 Mulliken charges:
               1
     1  C    0.091802
     2  C   -0.412324
     3  C   -0.440922
     4  C    0.015179
     5  C    0.016462
     6  C   -0.439785
     7  C   -0.405144
     8  C    0.097027
     9  C   -0.336643
    10  C    0.094685
    11  C   -0.639427
    12  C    0.683637
    13  C   -0.622405
    14  C    0.677931
    15  H    0.237409
    16  H    0.255955
    17  H    0.249350
    18  H    0.221711
    19  H    0.190649
    20  H    0.221863
    21  H    0.250122
    22  H    0.256449
    23  H    0.237040
    24  H    0.250666
    25  H    0.248714
 Sum of Mulliken charges =   1.00000

 Dipole moment (field-independent basis, Debye):
    X=             -0.0144    Y=              0.1864    Z=              0.0007  Tot=              0.1869
 Quadrupole moment (field-independent basis, Debye-Ang):
   XX=            -31.1597   YY=            -56.2627   ZZ=            -84.1257
   XY=             -0.0080   XZ=              0.0135   YZ=              0.0260

 Normal termination of Gaussian 16 at Thu Jul 28 17:22:47 2022.
