 Gaussian 16, Revision C.01,
 Gaussian 16:  ES64L-G16RevC.01  3-Jul-2019

 ---------------------------------------------------------------
 #n M062X/6-311++G(d,p) TD(NStates=1) EmpiricalDispersion=GD3 SP
 ---------------------------------------------------------------

 -----
 SP_25
 -----
 Symbolic Z-matrix:
 Charge =  1 Multiplicity = 1

                         Standard orientation:
 ---------------------------------------------------------------------
 Center     Atomic      Atomic             Coordinates (Angstroms)
 Number     Number       Type             X           Y           Z
 ---------------------------------------------------------------------
      1          6           0        2.492684   -1.360382    0.000016
      2          6           0        3.699672   -0.671918    0.002526
      3          6           0        3.680496    0.713903    0.002695
      4          6           0        2.460802    1.407595   -0.000778
      5          6           0       -2.460960    1.407492   -0.001021
      6          6           0       -3.681026    0.713748    0.002557
      7          6           0       -3.699819   -0.672074    0.002560
      8          6           0       -2.492926   -1.360488    0.000669
      9          6           0        0.001131   -1.453370   -0.001086
     10          6           0       -0.000080    1.429199   -0.003052
     11          6           0        1.263995   -0.677035   -0.002455
     12          6           0        1.237231    0.730834   -0.000813
     13          6           0       -1.263940   -0.677088   -0.002531
     14          6           0       -1.237111    0.730782   -0.001160
     15          1           0        2.488073   -2.443590   -0.004814
     16          1           0        4.635154   -1.211597    0.001396
     17          1           0        4.609035    1.272444    0.002178
     18          1           0        2.465248    2.490109    0.003776
     19          1           0       -0.000077    2.510273   -0.000202
     20          1           0       -2.465427    2.490006    0.003332
     21          1           0       -4.609714    1.272251    0.001779
     22          1           0       -4.635477   -1.211793    0.001419
     23          1           0       -2.488294   -2.443697   -0.004011
     24          1           0        0.000244   -2.147413    0.862776
     25          1           0        0.000346   -2.144185   -0.856391
 ---------------------------------------------------------------------

 SCF Done:  E(RM062X) =  -539.760268115     A.U. after   15 cycles

 Excitation energies and oscillator strengths:

 Excited State   1:      Singlet-A      2.8267 eV  438.62 nm  f=0.0289  <S**2>=0.000
      47 -> 48         0.70426
 This state for optimization and/or second-order correction.
 Total Energy, E(TD-HF/TD-DFT) =  -539.656389953
 Copying the excited state density for this state as the 1-particle RhoCI density.

 The electronic state is 1-A.
 Alpha  occ. eigenvalues --  -10.77667 -10.73240 -10.73226 -10.72416 -10.72414
 Alpha  occ. eigenvalues --  -10.71346 -10.71339 -10.70990 -10.70988 -10.70978
 Alpha  occ. eigenvalues --  -10.69947 -10.69942 -10.69642 -10.69635  -1.16459
 Alpha  occ. eigenvalues --   -1.12518  -1.06973  -1.05714  -1.01365  -1.00177
 Alpha  occ. eigenvalues --   -0.95802  -0.91051  -0.86421  -0.85911  -0.83818
 Alpha  occ. eigenvalues --   -0.78404  -0.76031  -0.74429  -0.69559  -0.69237
 Alpha  occ. eigenvalues --   -0.68497  -0.68176  -0.68078  -0.64778  -0.64318
 Alpha  occ. eigenvalues --   -0.63034  -0.61832  -0.60021  -0.59718  -0.59078
 Alpha  occ. eigenvalues --   -0.56891  -0.55201  -0.54821  -0.52458  -0.46663
 Alpha  occ. eigenvalues --   -0.46054  -0.44524
 Alpha virt. eigenvalues --   -0.26093  -0.14642  -0.14091  -0.12743  -0.11179
 Alpha virt. eigenvalues --   -0.10088  -0.09234  -0.07992  -0.07967  -0.07477
 Alpha virt. eigenvalues --   -0.07204  -0.07142  -0.05642  -0.05581  -0.05327

 Mulliken charges:
               1
     1  C    0.094334
     2  C   -0.409335
     3  C   -0.440513
     4  C    0.016105
     5  C    0.016221
     6  C   -0.440409
     7  C   -0.408679
     8  C    0.094798
     9  C   -0.336020
    10  C    0.095088
    11  C   -0.632125
    12  C    0.680884
    13  C   -0.630579
    14  C    0.680367
    15  H    0.237251
    16  H    0.256174
    17  H    0.249704
    18  H    0.221782
    19  H    0.190631
    20  H    0.221796
    21  H    0.249774
    22  H    0.256219
    23  H    0.237217
    24  H    0.250338
    25  H    0.248975
 Sum of Mulliken charges =   1.00000

 Dipole moment (field-independent basis, Debye):
    X=             -0.0013    Y=              0.1866    Z=              0.0001  Tot=              0.1866
 Quadrupole moment (field-independent basis, Debye-Ang):
   XX=            -31.1595   YY=            -56.2630   ZZ=            -84.1257
   XY=             -0.0007   XZ=              0.0012   YZ=              0.0242

 Normal termination of Gaussian 16 at Thu Jul 28 15:28:41 2022.
