 Gaussian 16, Revision C.01,
 Gaussian 16:  ES64L-G16RevC.01  3-Jul-2019

 ---------------------------------------------------------------
 #n M062X/6-311++G(d,p) TD(NStates=1) EmpiricalDispersion=GD3 SP
 ---------------------------------------------------------------

 ------
 SP_150
 ------
 Symbolic Z-matrix:
 Charge =  1 Multiplicity = 1

                         Standard orientation:
 ---------------------------------------------------------------------
 Center     Atomic      Atomic             Coordinates (Angstroms)
 Number     Number       Type             X           Y           Z
 ---------------------------------------------------------------------
      1          6           0        2.493909   -1.360716    0.002748
      2          6           0        3.683732   -0.672556    0.025382
      3          6           0        3.652330    0.713575    0.026419
      4          6           0        2.440252    1.408173   -0.008706
      5          6           0       -2.440560    1.407979   -0.009193
      6          6           0       -3.653392    0.713274    0.026139
      7          6           0       -3.684034   -0.672866    0.025446
      8          6           0       -2.494402   -1.360954    0.004047
      9          6           0        0.002259   -1.453479   -0.010994
     10          6           0       -0.000152    1.430205   -0.030468
     11          6           0        1.281235   -0.676628   -0.024856
     12          6           0        1.234594    0.731241   -0.009490
     13          6           0       -1.281125   -0.676732   -0.025015
     14          6           0       -1.234348    0.731153   -0.010187
     15          1           0        2.488973   -2.443145   -0.044974
     16          1           0        4.622049   -1.212097    0.014024
     17          1           0        4.609710    1.272405    0.020224
     18          1           0        2.445248    2.489971    0.036051
     19          1           0       -0.000148    2.510916   -0.001940
     20          1           0       -2.445602    2.489785    0.035163
     21          1           0       -4.611064    1.272036    0.019414
     22          1           0       -4.622707   -1.212485    0.014061
     23          1           0       -2.489419   -2.443388   -0.043373
     24          1           0        0.000478   -2.165365    0.891251
     25          1           0        0.000684   -2.128649   -0.827528
 ---------------------------------------------------------------------

 SCF Done:  E(RM062X) =  -539.754436864     A.U. after   15 cycles

 Excitation energies and oscillator strengths:

 Excited State   1:      Singlet-A      2.8504 eV  434.97 nm  f=0.0304  <S**2>=0.000
      47 -> 48         0.70420
 This state for optimization and/or second-order correction.
 Total Energy, E(TD-HF/TD-DFT) =  -539.649685703
 Copying the excited state density for this state as the 1-particle RhoCI density.

 The electronic state is 1-A.
 Alpha  occ. eigenvalues --  -10.77695 -10.73190 -10.73162 -10.72241 -10.72239
 Alpha  occ. eigenvalues --  -10.71121 -10.71106 -10.70964 -10.70857 -10.70853
 Alpha  occ. eigenvalues --  -10.69739 -10.69725 -10.69713 -10.69702  -1.16624
 Alpha  occ. eigenvalues --   -1.12988  -1.07242  -1.05548  -1.01868  -1.00060
 Alpha  occ. eigenvalues --   -0.95983  -0.90998  -0.86459  -0.86000  -0.83833
 Alpha  occ. eigenvalues --   -0.78470  -0.76039  -0.74520  -0.69577  -0.69253
 Alpha  occ. eigenvalues --   -0.68545  -0.67970  -0.67710  -0.65133  -0.64625
 Alpha  occ. eigenvalues --   -0.62661  -0.61520  -0.60109  -0.60049  -0.58932
 Alpha  occ. eigenvalues --   -0.56855  -0.55073  -0.54612  -0.52646  -0.47036
 Alpha  occ. eigenvalues --   -0.45981  -0.44699
 Alpha virt. eigenvalues --   -0.26156  -0.14460  -0.14044  -0.12494  -0.11188
 Alpha virt. eigenvalues --   -0.10108  -0.09270  -0.08105  -0.07924  -0.07490
 Alpha virt. eigenvalues --   -0.07240  -0.07080  -0.05636  -0.05583  -0.05293

 Mulliken charges:
               1
     1  C    0.084134
     2  C   -0.416848
     3  C   -0.438477
     4  C    0.081862
     5  C    0.080528
     6  C   -0.438523
     7  C   -0.415883
     8  C    0.084222
     9  C   -0.364369
    10  C    0.082676
    11  C   -0.520719
    12  C    0.543754
    13  C   -0.516879
    14  C    0.544349
    15  H    0.235311
    16  H    0.255001
    17  H    0.256431
    18  H    0.218309
    19  H    0.189467
    20  H    0.218359
    21  H    0.256503
    22  H    0.255174
    23  H    0.235111
    24  H    0.251250
    25  H    0.239255
 Sum of Mulliken charges =   1.00000

 Dipole moment (field-independent basis, Debye):
    X=             -0.0025    Y=              0.1737    Z=             -0.0029  Tot=              0.1737
 Quadrupole moment (field-independent basis, Debye-Ang):
   XX=            -31.5541   YY=            -56.2597   ZZ=            -83.9811
   XY=             -0.0014   XZ=              0.0024   YZ=              0.2389

 Normal termination of Gaussian 16 at Thu Jul 28 17:07:41 2022.
