 Gaussian 16, Revision C.01,
 Gaussian 16:  ES64L-G16RevC.01  3-Jul-2019

 ---------------------------------------------------------------
 #n M062X/6-311++G(d,p) TD(NStates=1) EmpiricalDispersion=GD3 SP
 ---------------------------------------------------------------

 ------
 SP_-75
 ------
 Symbolic Z-matrix:
 Charge =  1 Multiplicity = 1

                         Standard orientation:
 ---------------------------------------------------------------------
 Center     Atomic      Atomic             Coordinates (Angstroms)
 Number     Number       Type             X           Y           Z
 ---------------------------------------------------------------------
      1          6           0       -2.492566   -1.360619    0.000047
      2          6           0       -3.707013   -0.672289    0.007577
      3          6           0       -3.693955    0.713558    0.008085
      4          6           0       -2.470222    1.407427   -0.002334
      5          6           0        2.469740    1.407745   -0.003063
      6          6           0        3.692367    0.714029    0.007671
      7          6           0        3.706579   -0.671819    0.007682
      8          6           0        2.491844   -1.360316    0.002010
      9          6           0        0.003394   -1.453379   -0.003260
     10          6           0       -0.000243    1.429280   -0.009156
     11          6           0       -1.256237   -0.677111   -0.007368
     12          6           0       -1.238193    0.730757   -0.002440
     13          6           0        1.256398   -0.676950   -0.007590
     14          6           0        1.238549    0.730921   -0.003480
     15          1           0       -2.488065   -2.443763   -0.014444
     16          1           0       -4.641548   -1.212037    0.004185
     17          1           0       -4.609942    1.272041    0.006530
     18          1           0       -2.474458    2.489882    0.011328
     19          1           0       -0.000236    2.510325   -0.000604
     20          1           0        2.473917    2.490204    0.009997
     21          1           0        4.607907    1.272634    0.005340
     22          1           0        4.640583   -1.211449    0.004258
     23          1           0        2.487403   -2.443463   -0.012030
     24          1           0        0.000738   -2.141055   -0.849996
     25          1           0        0.001044   -2.150738    0.869148
 ---------------------------------------------------------------------

 SCF Done:  E(RM062X) =  -539.759309987     A.U. after   15 cycles

 Excitation energies and oscillator strengths:

 Excited State   1:      Singlet-A      2.8099 eV  441.24 nm  f=0.0281  <S**2>=0.000
      47 -> 48         0.70427
 This state for optimization and/or second-order correction.
 Total Energy, E(TD-HF/TD-DFT) =  -539.656048248
 Copying the excited state density for this state as the 1-particle RhoCI density.

 The electronic state is 1-A.
 Alpha  occ. eigenvalues --  -10.77660 -10.73286 -10.73244 -10.72500 -10.72497
 Alpha  occ. eigenvalues --  -10.71458 -10.71436 -10.71055 -10.71048 -10.70981
 Alpha  occ. eigenvalues --  -10.70065 -10.70049 -10.69615 -10.69594  -1.16394
 Alpha  occ. eigenvalues --   -1.12307  -1.06863  -1.05781  -1.01166  -1.00197
 Alpha  occ. eigenvalues --   -0.95724  -0.91070  -0.86411  -0.85875  -0.83809
 Alpha  occ. eigenvalues --   -0.78391  -0.76015  -0.74386  -0.69570  -0.69288
 Alpha  occ. eigenvalues --   -0.68562  -0.68235  -0.68137  -0.64622  -0.64184
 Alpha  occ. eigenvalues --   -0.63146  -0.61967  -0.59943  -0.59562  -0.59132
 Alpha  occ. eigenvalues --   -0.56917  -0.55252  -0.54886  -0.52376  -0.46522
 Alpha  occ. eigenvalues --   -0.46052  -0.44431
 Alpha virt. eigenvalues --   -0.26075  -0.14757  -0.14119  -0.12869  -0.11178
 Alpha virt. eigenvalues --   -0.10082  -0.09218  -0.07997  -0.07943  -0.07471
 Alpha virt. eigenvalues --   -0.07212  -0.07147  -0.05645  -0.05582  -0.05348

 Mulliken charges:
               1
     1  C    0.084954
     2  C   -0.399864
     3  C   -0.440763
     4  C    0.028697
     5  C    0.027954
     6  C   -0.441323
     7  C   -0.402301
     8  C    0.083580
     9  C   -0.313039
    10  C    0.093740
    11  C   -0.635288
    12  C    0.666508
    13  C   -0.637639
    14  C    0.668825
    15  H    0.236807
    16  H    0.256706
    17  H    0.246374
    18  H    0.222483
    19  H    0.189275
    20  H    0.222470
    21  H    0.246128
    22  H    0.256621
    23  H    0.236832
    24  H    0.249024
    25  H    0.253240
 Sum of Mulliken charges =   1.00000

 Dipole moment (field-independent basis, Debye):
    X=             -0.0040    Y=              0.1902    Z=              0.0007  Tot=              0.1902
 Quadrupole moment (field-independent basis, Debye-Ang):
   XX=            -30.9857   YY=            -56.2613   ZZ=            -84.1904
   XY=             -0.0023   XZ=             -0.0037   YZ=              0.0728

 Normal termination of Gaussian 16 at Thu Jul 28 14:05:21 2022.
