 Gaussian 16, Revision C.01,
 Gaussian 16:  ES64L-G16RevC.01  3-Jul-2019

 ---------------------------------------------------------------
 #n M062X/6-311++G(d,p) TD(NStates=1) EmpiricalDispersion=GD3 SP
 ---------------------------------------------------------------

 -------
 SP_-100
 -------
 Symbolic Z-matrix:
 Charge =  1 Multiplicity = 1

                         Standard orientation:
 ---------------------------------------------------------------------
 Center     Atomic      Atomic             Coordinates (Angstroms)
 Number     Number       Type             X           Y           Z
 ---------------------------------------------------------------------
      1          6           0       -2.492536   -1.360695    0.000062
      2          6           0       -3.708846   -0.672418    0.010101
      3          6           0       -3.697319    0.713450    0.010780
      4          6           0       -2.472578    1.407411   -0.003112
      5          6           0        2.471934    1.407837   -0.004084
      6          6           0        3.695203    0.714080    0.010228
      7          6           0        3.708270   -0.671791    0.010244
      8          6           0        2.491575   -1.360296    0.002681
      9          6           0        0.004526   -1.453387   -0.004347
     10          6           0       -0.000326    1.429351   -0.012207
     11          6           0       -1.254298   -0.677111   -0.009824
     12          6           0       -1.238434    0.730756   -0.003253
     13          6           0        1.254512   -0.676896   -0.010119
     14          6           0        1.238908    0.730978   -0.004640
     15          1           0       -2.488063   -2.443783   -0.019260
     16          1           0       -4.643146   -1.212178    0.005579
     17          1           0       -4.610169    1.271932    0.008706
     18          1           0       -2.476761    2.489813    0.015103
     19          1           0       -0.000317    2.510370   -0.000805
     20          1           0        2.476038    2.490248    0.013330
     21          1           0        4.607455    1.272725    0.007121
     22          1           0        4.641861   -1.211393    0.005678
     23          1           0        2.487180   -2.443390   -0.016039
     24          1           0        0.000986   -2.139527   -0.846794
     25          1           0        0.001394   -2.152438    0.872329
 ---------------------------------------------------------------------

 SCF Done:  E(RM062X) =  -539.758728099     A.U. after   15 cycles

 Excitation energies and oscillator strengths:

 Excited State   1:      Singlet-A      2.8051 eV  441.99 nm  f=0.0279  <S**2>=0.000
      47 -> 48         0.70427
 This state for optimization and/or second-order correction.
 Total Energy, E(TD-HF/TD-DFT) =  -539.655641825
 Copying the excited state density for this state as the 1-particle RhoCI density.

 The electronic state is 1-A.
 Alpha  occ. eigenvalues --  -10.77658 -10.73301 -10.73246 -10.72522 -10.72519
 Alpha  occ. eigenvalues --  -10.71488 -10.71459 -10.71073 -10.71063 -10.70982
 Alpha  occ. eigenvalues --  -10.70096 -10.70075 -10.69611 -10.69583  -1.16378
 Alpha  occ. eigenvalues --   -1.12253  -1.06837  -1.05796  -1.01120  -1.00197
 Alpha  occ. eigenvalues --   -0.95704  -0.91074  -0.86409  -0.85866  -0.83806
 Alpha  occ. eigenvalues --   -0.78390  -0.76010  -0.74376  -0.69576  -0.69307
 Alpha  occ. eigenvalues --   -0.68592  -0.68246  -0.68137  -0.64583  -0.64151
 Alpha  occ. eigenvalues --   -0.63169  -0.62000  -0.59921  -0.59522  -0.59145
 Alpha  occ. eigenvalues --   -0.56924  -0.55264  -0.54898  -0.52356  -0.46492
 Alpha  occ. eigenvalues --   -0.46046  -0.44406
 Alpha virt. eigenvalues --   -0.26071  -0.14788  -0.14127  -0.12902  -0.11177
 Alpha virt. eigenvalues --   -0.10081  -0.09214  -0.08004  -0.07932  -0.07469
 Alpha virt. eigenvalues --   -0.07218  -0.07145  -0.05646  -0.05582  -0.05353

 Mulliken charges:
               1
     1  C    0.080533
     2  C   -0.397378
     3  C   -0.441284
     4  C    0.038074
     5  C    0.036962
     6  C   -0.442135
     7  C   -0.400799
     8  C    0.078712
     9  C   -0.303058
    10  C    0.094399
    11  C   -0.630244
    12  C    0.650657
    13  C   -0.632520
    14  C    0.653985
    15  H    0.236502
    16  H    0.256839
    17  H    0.245514
    18  H    0.222571
    19  H    0.188774
    20  H    0.222561
    21  H    0.245176
    22  H    0.256742
    23  H    0.236510
    24  H    0.248624
    25  H    0.254281
 Sum of Mulliken charges =   1.00000

 Dipole moment (field-independent basis, Debye):
    X=             -0.0054    Y=              0.1909    Z=              0.0012  Tot=              0.1909
 Quadrupole moment (field-independent basis, Debye-Ang):
   XX=            -30.9424   YY=            -56.2606   ZZ=            -84.2066
   XY=             -0.0030   XZ=             -0.0049   YZ=              0.0971

 Normal termination of Gaussian 16 at Thu Jul 28 13:44:13 2022.
