 Gaussian 16, Revision C.01,
 Gaussian 16:  ES64L-G16RevC.01  3-Jul-2019

 ---------------------------------------------------------------
 #n M062X/6-311++G(d,p) TD(NStates=1) EmpiricalDispersion=GD3 SP
 ---------------------------------------------------------------

 -------
 SP_-125
 -------
 Symbolic Z-matrix:
 Charge =  1 Multiplicity = 1

                         Standard orientation:
 ---------------------------------------------------------------------
 Center     Atomic      Atomic             Coordinates (Angstroms)
 Number     Number       Type             X           Y           Z
 ---------------------------------------------------------------------
      1          6           0       -2.492234   -1.360770    0.000740
      2          6           0       -3.712369   -0.672562    0.015183
      3          6           0       -3.703519    0.713367    0.016036
      4          6           0       -2.477130    1.407515   -0.004901
      5          6           0        2.476482    1.407948   -0.005872
      6          6           0        3.701403    0.714001    0.015485
      7          6           0        3.711797   -0.671935    0.015328
      8          6           0        2.491276   -1.360383    0.003361
      9          6           0        0.004527   -1.453409   -0.006551
     10          6           0       -0.000329    1.429555   -0.018300
     11          6           0       -1.250473   -0.677034   -0.014813
     12          6           0       -1.239035    0.730831   -0.005221
     13          6           0        1.250687   -0.676819   -0.015105
     14          6           0        1.239506    0.731060   -0.006607
     15          1           0       -2.487837   -2.443700   -0.028098
     16          1           0       -4.646019   -1.212299    0.008385
     17          1           0       -4.609945    1.271902    0.012668
     18          1           0       -2.481187    2.489772    0.022227
     19          1           0       -0.000320    2.510500   -0.001191
     20          1           0        2.480462    2.490216    0.020454
     21          1           0        4.607229    1.272704    0.011089
     22          1           0        4.644738   -1.211513    0.008488
     23          1           0        2.486956   -2.443321   -0.024874
     24          1           0        0.000990   -2.135988   -0.840386
     25          1           0        0.001398   -2.156464    0.878663
 ---------------------------------------------------------------------

 SCF Done:  E(RM062X) =  -539.757157246     A.U. after   15 cycles

 Excitation energies and oscillator strengths:

 Excited State   1:      Singlet-A      2.7949 eV  443.61 nm  f=0.0275  <S**2>=0.000
      47 -> 48         0.70427
 This state for optimization and/or second-order correction.
 Total Energy, E(TD-HF/TD-DFT) =  -539.654446572
 Copying the excited state density for this state as the 1-particle RhoCI density.

 The electronic state is 1-A.
 Alpha  occ. eigenvalues --  -10.77656 -10.73319 -10.73264 -10.72566 -10.72563
 Alpha  occ. eigenvalues --  -10.71541 -10.71512 -10.71105 -10.71095 -10.70982
 Alpha  occ. eigenvalues --  -10.70154 -10.70133 -10.69596 -10.69569  -1.16348
 Alpha  occ. eigenvalues --   -1.12147  -1.06786  -1.05826  -1.01035  -1.00191
 Alpha  occ. eigenvalues --   -0.95666  -0.91082  -0.86406  -0.85849  -0.83801
 Alpha  occ. eigenvalues --   -0.78389  -0.75998  -0.74354  -0.69589  -0.69352
 Alpha  occ. eigenvalues --   -0.68663  -0.68263  -0.68120  -0.64508  -0.64085
 Alpha  occ. eigenvalues --   -0.63205  -0.62064  -0.59874  -0.59441  -0.59168
 Alpha  occ. eigenvalues --   -0.56942  -0.55287  -0.54921  -0.52315  -0.46441
 Alpha  occ. eigenvalues --   -0.46024  -0.44355
 Alpha virt. eigenvalues --   -0.26065  -0.14856  -0.14142  -0.12970  -0.11177
 Alpha virt. eigenvalues --   -0.10079  -0.09207  -0.08020  -0.07911  -0.07465
 Alpha virt. eigenvalues --   -0.07231  -0.07140  -0.05647  -0.05583  -0.05364

 Mulliken charges:
               1
     1  C    0.069221
     2  C   -0.392017
     3  C   -0.442142
     4  C    0.059333
     5  C    0.057917
     6  C   -0.443194
     7  C   -0.395734
     8  C    0.067348
     9  C   -0.284260
    10  C    0.092766
    11  C   -0.614814
    12  C    0.613827
    13  C   -0.615468
    14  C    0.617631
    15  H    0.235812
    16  H    0.257070
    17  H    0.243680
    18  H    0.222634
    19  H    0.187632
    20  H    0.222639
    21  H    0.243320
    22  H    0.257005
    23  H    0.235766
    24  H    0.247783
    25  H    0.256245
 Sum of Mulliken charges =   1.00000

 Dipole moment (field-independent basis, Debye):
    X=             -0.0055    Y=              0.1920    Z=              0.0021  Tot=              0.1921
 Quadrupole moment (field-independent basis, Debye-Ang):
   XX=            -30.8560   YY=            -56.2589   ZZ=            -84.2391
   XY=             -0.0031   XZ=             -0.0049   YZ=              0.1452

 Normal termination of Gaussian 16 at Thu Jul 28 13:24:41 2022.
