 Gaussian 16, Revision C.01,
 Gaussian 16:  ES64L-G16RevC.01  3-Jul-2019

 ---------------------------------------------------------------
 #n M062X/6-311++G(d,p) TD(NStates=1) EmpiricalDispersion=GD3 SP
 ---------------------------------------------------------------

 ------
 SP_100
 ------
 Symbolic Z-matrix:
 Charge =  1 Multiplicity = 1

                         Standard orientation:
 ---------------------------------------------------------------------
 Center     Atomic      Atomic             Coordinates (Angstroms)
 Number     Number       Type             X           Y           Z
 ---------------------------------------------------------------------
      1          6           0        2.492227   -1.360123   -0.001262
      2          6           0        3.697542   -0.671550    0.004988
      3          6           0        3.676072    0.714277    0.005657
      4          6           0        2.458132    1.407867   -0.001087
      5          6           0       -2.459079    1.407252   -0.002547
      6          6           0       -3.679250    0.713351    0.004825
      7          6           0       -3.698425   -0.672486    0.005192
      8          6           0       -2.493685   -1.360771    0.002654
      9          6           0        0.006784   -1.453373   -0.002108
     10          6           0       -0.000475    1.429230   -0.006122
     11          6           0        1.266043   -0.676891   -0.004754
     12          6           0        1.237232    0.730972   -0.000941
     13          6           0       -1.265717   -0.677209   -0.005210
     14          6           0       -1.236510    0.730668   -0.003027
     15          1           0        2.487632   -2.443307   -0.011213
     16          1           0        4.632905   -1.211127    0.002756
     17          1           0        4.607453    1.272921    0.005139
     18          1           0        2.462588    2.490357    0.008411
     19          1           0       -0.000462    2.510292   -0.000432
     20          1           0       -2.463662    2.489746    0.005748
     21          1           0       -4.611521    1.271766    0.002740
     22          1           0       -4.634851   -1.212299    0.002890
     23          1           0       -2.488962   -2.443957   -0.006393
     24          1           0        0.001460   -2.147954    0.865988
     25          1           0        0.002075   -2.143717   -0.853180
 ---------------------------------------------------------------------

 SCF Done:  E(RM062X) =  -539.760137884     A.U. after   15 cycles

 Excitation energies and oscillator strengths:

 Excited State   1:      Singlet-A      2.8302 eV  438.07 nm  f=0.0291  <S**2>=0.000
      47 -> 48         0.70425
 This state for optimization and/or second-order correction.
 Total Energy, E(TD-HF/TD-DFT) =  -539.656128140
 Copying the excited state density for this state as the 1-particle RhoCI density.

 The electronic state is 1-A.
 Alpha  occ. eigenvalues --  -10.77670 -10.73267 -10.73183 -10.72397 -10.72392
 Alpha  occ. eigenvalues --  -10.71339 -10.71294 -10.70981 -10.70978 -10.70967
 Alpha  occ. eigenvalues --  -10.69933 -10.69901 -10.69668 -10.69627  -1.16477
 Alpha  occ. eigenvalues --   -1.12571  -1.07001  -1.05698  -1.01418  -1.00168
 Alpha  occ. eigenvalues --   -0.95821  -0.91045  -0.86425  -0.85920  -0.83821
 Alpha  occ. eigenvalues --   -0.78408  -0.76034  -0.74439  -0.69559  -0.69230
 Alpha  occ. eigenvalues --   -0.68493  -0.68158  -0.68049  -0.64818  -0.64352
 Alpha  occ. eigenvalues --   -0.63003  -0.61795  -0.60037  -0.59755  -0.59064
 Alpha  occ. eigenvalues --   -0.56886  -0.55193  -0.54796  -0.52479  -0.46702
 Alpha  occ. eigenvalues --   -0.46050  -0.44545
 Alpha virt. eigenvalues --   -0.26099  -0.14617  -0.14085  -0.12713  -0.11180
 Alpha virt. eigenvalues --   -0.10089  -0.09238  -0.08003  -0.07962  -0.07479
 Alpha virt. eigenvalues --   -0.07206  -0.07136  -0.05641  -0.05581  -0.05323

 Mulliken charges:
               1
     1  C    0.093717
     2  C   -0.413061
     3  C   -0.441267
     4  C    0.020136
     5  C    0.020493
     6  C   -0.440717
     7  C   -0.409319
     8  C    0.096437
     9  C   -0.336480
    10  C    0.097340
    11  C   -0.628702
    12  C    0.671353
    13  C   -0.618589
    14  C    0.668769
    15  H    0.237208
    16  H    0.255949
    17  H    0.250371
    18  H    0.221489
    19  H    0.190787
    20  H    0.221585
    21  H    0.250773
    22  H    0.256244
    23  H    0.236968
    24  H    0.250728
    25  H    0.247789
 Sum of Mulliken charges =   1.00000

 Dipole moment (field-independent basis, Debye):
    X=             -0.0078    Y=              0.1854    Z=              0.0004  Tot=              0.1856
 Quadrupole moment (field-independent basis, Debye-Ang):
   XX=            -31.2030   YY=            -56.2631   ZZ=            -84.1096
   XY=             -0.0043   XZ=              0.0074   YZ=              0.0491

 Normal termination of Gaussian 16 at Thu Jul 28 16:35:05 2022.
