 Gaussian 16, Revision C.01,
 Gaussian 16:  ES64L-G16RevC.01  3-Jul-2019

 ---------------------------------------------------------------
 #n M062X/6-311++G(d,p) TD(NStates=1) EmpiricalDispersion=GD3 SP
 ---------------------------------------------------------------

 -------
 SP_-100
 -------
 Symbolic Z-matrix:
 Charge =  1 Multiplicity = 1

                         Standard orientation:
 ---------------------------------------------------------------------
 Center     Atomic      Atomic             Coordinates (Angstroms)
 Number     Number       Type             X           Y           Z
 ---------------------------------------------------------------------
      1          6           0       -2.492265   -1.360679    0.000726
      2          6           0       -3.710536   -0.672404    0.012659
      3          6           0       -3.700155    0.713491    0.013342
      4          6           0       -2.474773    1.407511   -0.004124
      5          6           0        2.474289    1.407834   -0.004852
      6          6           0        3.698567    0.713966    0.012928
      7          6           0        3.710105   -0.671934    0.012767
      8          6           0        2.491545   -1.360385    0.002691
      9          6           0        0.003395   -1.453397   -0.005464
     10          6           0       -0.000245    1.429443   -0.015249
     11          6           0       -1.252412   -0.677050   -0.012357
     12          6           0       -1.238794    0.730818   -0.004408
     13          6           0        1.252573   -0.676888   -0.012576
     14          6           0        1.239148    0.730987   -0.005447
     15          1           0       -2.487839   -2.443697   -0.023282
     16          1           0       -4.644422   -1.212134    0.006992
     17          1           0       -4.609718    1.272018    0.010493
     18          1           0       -2.478884    2.489849    0.018451
     19          1           0       -0.000239    2.510429   -0.000991
     20          1           0        2.478341    2.490179    0.017121
     21          1           0        4.607681    1.272616    0.009307
     22          1           0        4.643459   -1.211545    0.007068
     23          1           0        2.487178   -2.443407   -0.020865
     24          1           0        0.000741   -2.137468   -0.843594
     25          1           0        0.001047   -2.154716    0.875491
 ---------------------------------------------------------------------

 SCF Done:  E(RM062X) =  -539.758012073     A.U. after   15 cycles

 Excitation energies and oscillator strengths:

 Excited State   1:      Singlet-A      2.8001 eV  442.78 nm  f=0.0277  <S**2>=0.000
      47 -> 48         0.70427
 This state for optimization and/or second-order correction.
 Total Energy, E(TD-HF/TD-DFT) =  -539.655109398
 Copying the excited state density for this state as the 1-particle RhoCI density.

 The electronic state is 1-A.
 Alpha  occ. eigenvalues --  -10.77657 -10.73303 -10.73262 -10.72543 -10.72541
 Alpha  occ. eigenvalues --  -10.71511 -10.71489 -10.71087 -10.71080 -10.70982
 Alpha  occ. eigenvalues --  -10.70122 -10.70106 -10.69600 -10.69579  -1.16363
 Alpha  occ. eigenvalues --   -1.12200  -1.06811  -1.05811  -1.01077  -1.00195
 Alpha  occ. eigenvalues --   -0.95685  -0.91078  -0.86408  -0.85857  -0.83804
 Alpha  occ. eigenvalues --   -0.78389  -0.76004  -0.74365  -0.69582  -0.69328
 Alpha  occ. eigenvalues --   -0.68626  -0.68255  -0.68130  -0.64545  -0.64118
 Alpha  occ. eigenvalues --   -0.63188  -0.62033  -0.59898  -0.59482  -0.59156
 Alpha  occ. eigenvalues --   -0.56933  -0.55275  -0.54912  -0.52336  -0.46465
 Alpha  occ. eigenvalues --   -0.46037  -0.44381
 Alpha virt. eigenvalues --   -0.26068  -0.14821  -0.14134  -0.12936  -0.11177
 Alpha virt. eigenvalues --   -0.10080  -0.09211  -0.08012  -0.07921  -0.07467
 Alpha virt. eigenvalues --   -0.07224  -0.07143  -0.05647  -0.05582  -0.05359

 Mulliken charges:
               1
     1  C    0.074904
     2  C   -0.395397
     3  C   -0.441936
     4  C    0.048364
     5  C    0.047423
     6  C   -0.442651
     7  C   -0.398081
     8  C    0.073525
     9  C   -0.293121
    10  C    0.094222
    11  C   -0.623584
    12  C    0.633188
    13  C   -0.624664
    14  C    0.635866
    15  H    0.236163
    16  H    0.256947
    17  H    0.244559
    18  H    0.222622
    19  H    0.188222
    20  H    0.222621
    21  H    0.244297
    22  H    0.256886
    23  H    0.236149
    24  H    0.248241
    25  H    0.255236
 Sum of Mulliken charges =   1.00000

 Dipole moment (field-independent basis, Debye):
    X=             -0.0041    Y=              0.1915    Z=              0.0015  Tot=              0.1915
 Quadrupole moment (field-independent basis, Debye-Ang):
   XX=            -30.8991   YY=            -56.2598   ZZ=            -84.2228
   XY=             -0.0023   XZ=             -0.0037   YZ=              0.1209

 Normal termination of Gaussian 16 at Thu Jul 28 13:45:54 2022.
