 Gaussian 16, Revision C.01,
 Gaussian 16:  ES64L-G16RevC.01  3-Jul-2019

 ---------------------------------------------------------------
 #n M062X/6-311++G(d,p) TD(NStates=1) EmpiricalDispersion=GD3 SP
 ---------------------------------------------------------------

 ------
 SP_125
 ------
 Symbolic Z-matrix:
 Charge =  1 Multiplicity = 1

                         Standard orientation:
 ---------------------------------------------------------------------
 Center     Atomic      Atomic             Coordinates (Angstroms)
 Number     Number       Type             X           Y           Z
 ---------------------------------------------------------------------
      1          6           0        2.491985   -1.360016   -0.001909
      2          6           0        3.697395   -0.671394    0.004956
      3          6           0        3.675542    0.714431    0.005790
      4          6           0        2.457974    1.407970   -0.000853
      5          6           0       -2.459237    1.407149   -0.002799
      6          6           0       -3.679780    0.713196    0.004681
      7          6           0       -3.698572   -0.672642    0.005227
      8          6           0       -2.493928   -1.360879    0.003312
      9          6           0        0.009045   -1.453372   -0.002076
     10          6           0       -0.000633    1.429229   -0.006131
     11          6           0        1.266097   -0.676838   -0.004676
     12          6           0        1.237352    0.731022   -0.000599
     13          6           0       -1.265663   -0.677262   -0.005284
     14          6           0       -1.236389    0.730617   -0.003379
     15          1           0        2.487411   -2.443199   -0.012005
     16          1           0        4.632581   -1.210932    0.002738
     17          1           0        4.606775    1.273114    0.005530
     18          1           0        2.462409    2.490459    0.008840
     19          1           0       -0.000616    2.510292   -0.000446
     20          1           0       -2.463840    2.489644    0.005290
     21          1           0       -4.612198    1.271573    0.002332
     22          1           0       -4.635176   -1.212495    0.002917
     23          1           0       -2.489185   -2.444066   -0.005580
     24          1           0        0.001946   -2.147400    0.866000
     25          1           0        0.002766   -2.144271   -0.853173
 ---------------------------------------------------------------------

 SCF Done:  E(RM062X) =  -539.760107097     A.U. after   15 cycles

 Excitation energies and oscillator strengths:

 Excited State   1:      Singlet-A      2.8302 eV  438.07 nm  f=0.0291  <S**2>=0.000
      47 -> 48         0.70425
 This state for optimization and/or second-order correction.
 Total Energy, E(TD-HF/TD-DFT) =  -539.656098118
 Copying the excited state density for this state as the 1-particle RhoCI density.

 The electronic state is 1-A.
 Alpha  occ. eigenvalues --  -10.77670 -10.73281 -10.73169 -10.72397 -10.72392
 Alpha  occ. eigenvalues --  -10.71346 -10.71287 -10.70983 -10.70978 -10.70964
 Alpha  occ. eigenvalues --  -10.69939 -10.69896 -10.69674 -10.69620  -1.16477
 Alpha  occ. eigenvalues --   -1.12571  -1.07001  -1.05699  -1.01418  -1.00167
 Alpha  occ. eigenvalues --   -0.95821  -0.91045  -0.86426  -0.85919  -0.83821
 Alpha  occ. eigenvalues --   -0.78408  -0.76034  -0.74439  -0.69560  -0.69230
 Alpha  occ. eigenvalues --   -0.68492  -0.68158  -0.68050  -0.64818  -0.64352
 Alpha  occ. eigenvalues --   -0.63005  -0.61793  -0.60038  -0.59755  -0.59064
 Alpha  occ. eigenvalues --   -0.56886  -0.55196  -0.54791  -0.52479  -0.46702
 Alpha  occ. eigenvalues --   -0.46049  -0.44545
 Alpha virt. eigenvalues --   -0.26099  -0.14617  -0.14085  -0.12713  -0.11180
 Alpha virt. eigenvalues --   -0.10090  -0.09238  -0.08003  -0.07962  -0.07479
 Alpha virt. eigenvalues --   -0.07206  -0.07136  -0.05641  -0.05581  -0.05323

 Mulliken charges:
               1
     1  C    0.093226
     2  C   -0.413617
     3  C   -0.441337
     4  C    0.020013
     5  C    0.020490
     6  C   -0.440604
     7  C   -0.408634
     8  C    0.096872
     9  C   -0.336634
    10  C    0.097265
    11  C   -0.630297
    12  C    0.671802
    13  C   -0.616810
    14  C    0.668355
    15  H    0.237245
    16  H    0.255901
    17  H    0.250303
    18  H    0.221473
    19  H    0.190790
    20  H    0.221601
    21  H    0.250839
    22  H    0.256294
    23  H    0.236925
    24  H    0.250797
    25  H    0.247740
 Sum of Mulliken charges =   1.00000

 Dipole moment (field-independent basis, Debye):
    X=             -0.0104    Y=              0.1853    Z=              0.0005  Tot=              0.1856
 Quadrupole moment (field-independent basis, Debye-Ang):
   XX=            -31.2031   YY=            -56.2630   ZZ=            -84.1096
   XY=             -0.0058   XZ=              0.0098   YZ=              0.0495

 Normal termination of Gaussian 16 at Thu Jul 28 16:58:16 2022.
