 Gaussian 16, Revision C.01,
 Gaussian 16:  ES64L-G16RevC.01  3-Jul-2019

 ---------------------------------------------------------------
 #n M062X/6-311++G(d,p) TD(NStates=1) EmpiricalDispersion=GD3 SP
 ---------------------------------------------------------------

 -----
 SP_50
 -----
 Symbolic Z-matrix:
 Charge =  1 Multiplicity = 1

                         Standard orientation:
 ---------------------------------------------------------------------
 Center     Atomic      Atomic             Coordinates (Angstroms)
 Number     Number       Type             X           Y           Z
 ---------------------------------------------------------------------
      1          6           0       -1.360496    0.001360    2.493255
      2          6           0       -0.672105    0.010168    3.694458
      3          6           0        0.713765    0.010514    3.671461
      4          6           0        1.407624   -0.003580    2.454056
      5          6           0        1.407624   -0.003580   -2.454056
      6          6           0        0.713765    0.010514   -3.671461
      7          6           0       -0.672105    0.010168   -3.694458
      8          6           0       -1.360496    0.001360   -2.493255
      9          6           0       -1.453386   -0.004408   -0.000000
     10          6           0        1.429352   -0.012189    0.000000
     11          6           0       -0.677003   -0.009976    1.269705
     12          6           0        0.730867   -0.003936    1.236271
     13          6           0       -0.677003   -0.009976   -1.269705
     14          6           0        0.730867   -0.003936   -1.236271
     15          1           0       -2.443586   -0.017672    2.488521
     16          1           0       -1.211785    0.005619    4.631003
     17          1           0        1.272328    0.007930    4.609712
     18          1           0        2.490030    0.014246    2.458700
     19          1           0        2.510370   -0.000776    0.000000
     20          1           0        2.490030    0.014246   -2.458700
     21          1           0        1.272328    0.007930   -4.609712
     22          1           0       -1.211785    0.005619   -4.631003
     23          1           0       -2.443586   -0.017672   -2.488521
     24          1           0       -2.153547    0.872300   -0.000000
     25          1           0       -2.138418   -0.846804   -0.000000
 ---------------------------------------------------------------------

 SCF Done:  E(RM062X) =  -539.759544948     A.U. after   15 cycles

 Excitation energies and oscillator strengths:

 Excited State   1:      Singlet-A'     2.8368 eV  437.06 nm  f=0.0294  <S**2>=0.000
      47 -> 48         0.70424
 This state for optimization and/or second-order correction.
 Total Energy, E(TD-HF/TD-DFT) =  -539.655296101
 Copying the excited state density for this state as the 1-particle RhoCI density.

 The electronic state is 1-A'.
 Alpha  occ. eigenvalues --  -10.77675 -10.73212 -10.73211 -10.72355 -10.72354
 Alpha  occ. eigenvalues --  -10.71265 -10.71265 -10.70975 -10.70944 -10.70944
 Alpha  occ. eigenvalues --  -10.69863 -10.69863 -10.69667 -10.69667  -1.16512
 Alpha  occ. eigenvalues --   -1.12676  -1.07060  -1.05661  -1.01526  -1.00147
 Alpha  occ. eigenvalues --   -0.95861  -0.91034  -0.86431  -0.85940  -0.83824
 Alpha  occ. eigenvalues --   -0.78420  -0.76038  -0.74460  -0.69559  -0.69224
 Alpha  occ. eigenvalues --   -0.68499  -0.68117  -0.67974  -0.64897  -0.64419
 Alpha  occ. eigenvalues --   -0.62927  -0.61728  -0.60064  -0.59831  -0.59034
 Alpha  occ. eigenvalues --   -0.56876  -0.55161  -0.54760  -0.52520  -0.46782
 Alpha  occ. eigenvalues --   -0.46038  -0.44588
 Alpha virt. eigenvalues --   -0.26111  -0.14570  -0.14073  -0.12654  -0.11182
 Alpha virt. eigenvalues --   -0.10093  -0.09245  -0.08028  -0.07950  -0.07482
 Alpha virt. eigenvalues --   -0.07212  -0.07124  -0.05640  -0.05581  -0.05314

 Mulliken charges:
               1
     1  C    0.093742
     2  C   -0.414910
     3  C   -0.441977
     4  C    0.034643
     5  C    0.034643
     6  C   -0.441977
     7  C   -0.414910
     8  C    0.093742
     9  C   -0.335610
    10  C    0.100649
    11  C   -0.601901
    12  C    0.638452
    13  C   -0.601901
    14  C    0.638452
    15  H    0.236628
    16  H    0.255895
    17  H    0.252178
    18  H    0.220957
    19  H    0.190855
    20  H    0.220957
    21  H    0.252178
    22  H    0.255895
    23  H    0.236628
    24  H    0.250879
    25  H    0.245812
 Sum of Mulliken charges =   1.00000

 Dipole moment (field-independent basis, Debye):
    X=              0.1830    Y=             -0.0004    Z=             -0.0000  Tot=              0.1830
 Quadrupole moment (field-independent basis, Debye-Ang):
   XX=            -56.2630   YY=            -84.0774   ZZ=            -31.2897
   XY=              0.0961   XZ=             -0.0000   YZ=             -0.0000

 Normal termination of Gaussian 16 at Thu Jul 28 15:46:19 2022.
