 Gaussian 16, Revision C.01,
 Gaussian 16:  ES64L-G16RevC.01  3-Jul-2019

 ---------------------------------------------------------------
 #n M062X/6-311++G(d,p) TD(NStates=1) EmpiricalDispersion=GD3 SP
 ---------------------------------------------------------------

 -----
 SP_25
 -----
 Symbolic Z-matrix:
 Charge =  1 Multiplicity = 1

                         Standard orientation:
 ---------------------------------------------------------------------
 Center     Atomic      Atomic             Coordinates (Angstroms)
 Number     Number       Type             X           Y           Z
 ---------------------------------------------------------------------
      1          6           0        2.493227   -1.360522    0.001344
      2          6           0        3.696294   -0.672132    0.007642
      3          6           0        3.674826    0.713717    0.007819
      4          6           0        2.456410    1.407535   -0.002802
      5          6           0       -2.456252    1.407637   -0.002559
      6          6           0       -3.674296    0.713870    0.007958
      7          6           0       -3.696147   -0.671976    0.007609
      8          6           0       -2.492983   -1.360413    0.000691
      9          6           0       -0.001130   -1.453379   -0.003321
     10          6           0        0.000079    1.429280   -0.009138
     11          6           0        1.267765   -0.677057   -0.007521
     12          6           0        1.236511    0.730815   -0.003123
     13          6           0       -1.267820   -0.677004   -0.007444
     14          6           0       -1.236631    0.730864   -0.002775
     15          1           0        2.488519   -2.443668   -0.012858
     16          1           0        4.632603   -1.211841    0.004223
     17          1           0        4.609938    1.272242    0.005751
     18          1           0        2.461002    2.489992    0.010470
     19          1           0        0.000077    2.510325   -0.000575
     20          1           0       -2.460823    2.490093    0.010914
     21          1           0       -4.609261    1.272433    0.006152
     22          1           0       -4.632278   -1.211646    0.004201
     23          1           0       -2.488298   -2.443558   -0.013661
     24          1           0       -0.000243   -2.151847    0.869121
     25          1           0       -0.000345   -2.139946   -0.850008
 ---------------------------------------------------------------------

 SCF Done:  E(RM062X) =  -539.759915774     A.U. after   15 cycles

 Excitation energies and oscillator strengths:

 Excited State   1:      Singlet-A      2.8336 eV  437.55 nm  f=0.0293  <S**2>=0.000
      47 -> 48         0.70425
 This state for optimization and/or second-order correction.
 Total Energy, E(TD-HF/TD-DFT) =  -539.655781759
 Copying the excited state density for this state as the 1-particle RhoCI density.

 The electronic state is 1-A.
 Alpha  occ. eigenvalues --  -10.77672 -10.73225 -10.73211 -10.72375 -10.72373
 Alpha  occ. eigenvalues --  -10.71295 -10.71287 -10.70976 -10.70960 -10.70958
 Alpha  occ. eigenvalues --  -10.69893 -10.69888 -10.69660 -10.69654  -1.16494
 Alpha  occ. eigenvalues --   -1.12623  -1.07030  -1.05679  -1.01472  -1.00158
 Alpha  occ. eigenvalues --   -0.95841  -0.91040  -0.86428  -0.85930  -0.83822
 Alpha  occ. eigenvalues --   -0.78414  -0.76036  -0.74449  -0.69559  -0.69226
 Alpha  occ. eigenvalues --   -0.68495  -0.68138  -0.68012  -0.64857  -0.64385
 Alpha  occ. eigenvalues --   -0.62965  -0.61763  -0.60051  -0.59794  -0.59049
 Alpha  occ. eigenvalues --   -0.56881  -0.55175  -0.54781  -0.52500  -0.46741
 Alpha  occ. eigenvalues --   -0.46044  -0.44567
 Alpha virt. eigenvalues --   -0.26105  -0.14593  -0.14079  -0.12683  -0.11181
 Alpha virt. eigenvalues --   -0.10091  -0.09242  -0.08015  -0.07956  -0.07481
 Alpha virt. eigenvalues --   -0.07208  -0.07131  -0.05641  -0.05581  -0.05318

 Mulliken charges:
               1
     1  C    0.094970
     2  C   -0.413025
     3  C   -0.441538
     4  C    0.026759
     5  C    0.026771
     6  C   -0.441620
     7  C   -0.413620
     8  C    0.094550
     9  C   -0.335690
    10  C    0.099509
    11  C   -0.612890
    12  C    0.655342
    13  C   -0.614687
    14  C    0.655671
    15  H    0.236857
    16  H    0.256022
    17  H    0.251419
    18  H    0.221268
    19  H    0.190858
    20  H    0.221250
    21  H    0.251355
    22  H    0.255969
    23  H    0.236904
    24  H    0.250688
    25  H    0.246907
 Sum of Mulliken charges =   1.00000

 Dipole moment (field-independent basis, Debye):
    X=              0.0013    Y=              0.1843    Z=             -0.0002  Tot=              0.1843
 Quadrupole moment (field-independent basis, Debye-Ang):
   XX=            -31.2463   YY=            -56.2631   ZZ=            -84.0935
   XY=              0.0007   XZ=             -0.0012   YZ=              0.0719

 Normal termination of Gaussian 16 at Thu Jul 28 15:26:07 2022.
