 Gaussian 16, Revision C.01,
 Gaussian 16:  ES64L-G16RevC.01  3-Jul-2019

 ---------------------------------------------------------------
 #n M062X/6-311++G(d,p) TD(NStates=1) EmpiricalDispersion=GD3 SP
 ---------------------------------------------------------------

 -------
 SP_-150
 -------
 Symbolic Z-matrix:
 Charge =  1 Multiplicity = 1

                         Standard orientation:
 ---------------------------------------------------------------------
 Center     Atomic      Atomic             Coordinates (Angstroms)
 Number     Number       Type             X           Y           Z
 ---------------------------------------------------------------------
      1          6           0       -2.493563   -1.360960   -0.002561
      2          6           0       -3.705759   -0.672800    0.004920
      3          6           0       -3.692708    0.713031    0.005923
      4          6           0       -2.468505    1.407033   -0.000620
      5          6           0        2.466906    1.408086   -0.003051
      6          6           0        3.687414    0.714596    0.004541
      7          6           0        3.704308   -0.671236    0.005270
      8          6           0        2.491151   -1.359935    0.003980
      9          6           0        0.011312   -1.453372   -0.002054
     10          6           0       -0.000807    1.429229   -0.006141
     11          6           0       -1.257961   -0.677317   -0.004606
     12          6           0       -1.237475    0.730551   -0.000261
     13          6           0        1.258499   -0.676782   -0.005350
     14          6           0        1.238665    0.731089   -0.003731
     15          1           0       -2.488954   -2.444140   -0.012801
     16          1           0       -4.641240   -1.212693    0.002715
     17          1           0       -4.612429    1.271361    0.005912
     18          1           0       -2.472875    2.489520    0.009267
     19          1           0       -0.000784    2.510292   -0.000463
     20          1           0        2.471073    2.490584    0.004831
     21          1           0        4.605644    1.273326    0.001938
     22          1           0        4.638017   -1.210734    0.002955
     23          1           0        2.486744   -2.443124   -0.004755
     24          1           0        0.002455   -2.144826   -0.853166
     25          1           0        0.003476   -2.146844    0.866011
 ---------------------------------------------------------------------

 SCF Done:  E(RM062X) =  -539.759650781     A.U. after   15 cycles

 Excitation energies and oscillator strengths:

 Excited State   1:      Singlet-A      2.8144 eV  440.54 nm  f=0.0283  <S**2>=0.000
      47 -> 48         0.70426
 This state for optimization and/or second-order correction.
 Total Energy, E(TD-HF/TD-DFT) =  -539.656224548
 Copying the excited state density for this state as the 1-particle RhoCI density.

 The electronic state is 1-A.
 Alpha  occ. eigenvalues --  -10.77661 -10.73325 -10.73187 -10.72481 -10.72474
 Alpha  occ. eigenvalues --  -10.71458 -10.71384 -10.71048 -10.71024 -10.70982
 Alpha  occ. eigenvalues --  -10.70055 -10.70002 -10.69647 -10.69579  -1.16411
 Alpha  occ. eigenvalues --   -1.12360  -1.06890  -1.05768  -1.01214  -1.00193
 Alpha  occ. eigenvalues --   -0.95743  -0.91065  -0.86415  -0.85882  -0.83812
 Alpha  occ. eigenvalues --   -0.78393  -0.76021  -0.74397  -0.69569  -0.69270
 Alpha  occ. eigenvalues --   -0.68535  -0.68224  -0.68134  -0.64660  -0.64219
 Alpha  occ. eigenvalues --   -0.63127  -0.61928  -0.59966  -0.59600  -0.59120
 Alpha  occ. eigenvalues --   -0.56909  -0.55251  -0.54855  -0.52397  -0.46555
 Alpha  occ. eigenvalues --   -0.46056  -0.44454
 Alpha virt. eigenvalues --   -0.26079  -0.14726  -0.14112  -0.12837  -0.11178
 Alpha virt. eigenvalues --   -0.10083  -0.09222  -0.07989  -0.07955  -0.07472
 Alpha virt. eigenvalues --   -0.07209  -0.07147  -0.05645  -0.05582  -0.05342

 Mulliken charges:
               1
     1  C    0.090284
     2  C   -0.398825
     3  C   -0.439559
     4  C    0.021816
     5  C    0.019625
     6  C   -0.441172
     7  C   -0.406506
     8  C    0.085727
     9  C   -0.322666
    10  C    0.092521
    11  C   -0.633768
    12  C    0.675788
    13  C   -0.643735
    14  C    0.682896
    15  H    0.236986
    16  H    0.256704
    17  H    0.247536
    18  H    0.222385
    19  H    0.189732
    20  H    0.222318
    21  H    0.246746
    22  H    0.256380
    23  H    0.237135
    24  H    0.249196
    25  H    0.252455
 Sum of Mulliken charges =   1.00000

 Dipole moment (field-independent basis, Debye):
    X=             -0.0133    Y=              0.1893    Z=              0.0009  Tot=              0.1897
 Quadrupole moment (field-independent basis, Debye-Ang):
   XX=            -31.0294   YY=            -56.2617   ZZ=            -84.1742
   XY=             -0.0075   XZ=             -0.0123   YZ=              0.0500

 Normal termination of Gaussian 16 at Thu Jul 28 12:55:17 2022.
