 Gaussian 16, Revision C.01,
 Gaussian 16:  ES64L-G16RevC.01  3-Jul-2019

 ---------------------------------------------------------------
 #n M062X/6-311++G(d,p) TD(NStates=1) EmpiricalDispersion=GD3 SP
 ---------------------------------------------------------------

 -----
 SP_75
 -----
 Symbolic Z-matrix:
 Charge =  1 Multiplicity = 1

                         Standard orientation:
 ---------------------------------------------------------------------
 Center     Atomic      Atomic             Coordinates (Angstroms)
 Number     Number       Type             X           Y           Z
 ---------------------------------------------------------------------
      1          6           0       -1.360576    0.002039    2.493555
      2          6           0       -0.672249    0.015251    3.690933
      3          6           0        0.713684    0.015771    3.665261
      4          6           0        1.407732   -0.005369    2.449506
      5          6           0        1.407732   -0.005369   -2.449506
      6          6           0        0.713684    0.015771   -3.665261
      7          6           0       -0.672249    0.015251   -3.690933
      8          6           0       -1.360576    0.002039   -2.493555
      9          6           0       -1.453408   -0.006612   -0.000000
     10          6           0        1.429555   -0.018282    0.000000
     11          6           0       -0.676926   -0.014963    1.273530
     12          6           0        0.730946   -0.005903    1.235671
     13          6           0       -0.676926   -0.014963   -1.273530
     14          6           0        0.730946   -0.005903   -1.235671
     15          1           0       -2.443510   -0.026509    2.488746
     16          1           0       -1.211906    0.008427    4.628128
     17          1           0        1.272303    0.011895    4.609937
     18          1           0        2.489994    0.021370    2.454275
     19          1           0        2.510500   -0.001161    0.000000
     20          1           0        2.489994    0.021370   -2.454275
     21          1           0        1.272303    0.011895   -4.609937
     22          1           0       -1.211906    0.008427   -4.628128
     23          1           0       -2.443510   -0.026509   -2.488746
     24          1           0       -2.157573    0.878630   -0.000000
     25          1           0       -2.134879   -0.840391   -0.000000
 ---------------------------------------------------------------------

 SCF Done:  E(RM062X) =  -539.758377716     A.U. after   15 cycles

 Excitation energies and oscillator strengths:

 Excited State   1:      Singlet-A'     2.8423 eV  436.21 nm  f=0.0298  <S**2>=0.000
      47 -> 48         0.70423
 This state for optimization and/or second-order correction.
 Total Energy, E(TD-HF/TD-DFT) =  -539.653926052
 Copying the excited state density for this state as the 1-particle RhoCI density.

 The electronic state is 1-A'.
 Alpha  occ. eigenvalues --  -10.77681 -10.73199 -10.73198 -10.72316 -10.72314
 Alpha  occ. eigenvalues --  -10.71214 -10.71214 -10.70972 -10.70914 -10.70914
 Alpha  occ. eigenvalues --  -10.69810 -10.69810 -10.69687 -10.69687  -1.16548
 Alpha  occ. eigenvalues --   -1.12780  -1.07119  -1.05624  -1.01638  -1.00122
 Alpha  occ. eigenvalues --   -0.95902  -0.91023  -0.86440  -0.85960  -0.83828
 Alpha  occ. eigenvalues --   -0.78434  -0.76040  -0.74480  -0.69563  -0.69226
 Alpha  occ. eigenvalues --   -0.68511  -0.68071  -0.67890  -0.64976  -0.64488
 Alpha  occ. eigenvalues --   -0.62846  -0.61658  -0.60086  -0.59905  -0.59002
 Alpha  occ. eigenvalues --   -0.56868  -0.55133  -0.54714  -0.52562  -0.46865
 Alpha  occ. eigenvalues --   -0.46022  -0.44627
 Alpha virt. eigenvalues --   -0.26124  -0.14528  -0.14062  -0.12599  -0.11183
 Alpha virt. eigenvalues --   -0.10098  -0.09253  -0.08053  -0.07940  -0.07485
 Alpha virt. eigenvalues --   -0.07220  -0.07110  -0.05638  -0.05581  -0.05306

 Mulliken charges:
               1
     1  C    0.090429
     2  C   -0.416505
     3  C   -0.441851
     4  C    0.051816
     5  C    0.051816
     6  C   -0.441851
     7  C   -0.416505
     8  C    0.090429
     9  C   -0.339569
    10  C    0.098740
    11  C   -0.574584
    12  C    0.602691
    13  C   -0.574584
    14  C    0.602691
    15  H    0.236101
    16  H    0.255674
    17  H    0.253689
    18  H    0.220261
    19  H    0.190630
    20  H    0.220261
    21  H    0.253689
    22  H    0.255674
    23  H    0.236101
    24  H    0.251099
    25  H    0.243658
 Sum of Mulliken charges =   1.00000

 Dipole moment (field-independent basis, Debye):
    X=              0.1802    Y=             -0.0009    Z=             -0.0000  Tot=              0.1802
 Quadrupole moment (field-independent basis, Debye-Ang):
   XX=            -56.2624   YY=            -84.0453   ZZ=            -31.3767
   XY=              0.1439   XZ=              0.0000   YZ=             -0.0000

 Normal termination of Gaussian 16 at Thu Jul 28 16:05:42 2022.
