 Gaussian 16, Revision C.01,
 Gaussian 16:  ES64L-G16RevC.01  3-Jul-2019

 ---------------------------------------------------------------
 #n M062X/6-311++G(d,p) TD(NStates=1) EmpiricalDispersion=GD3 SP
 ---------------------------------------------------------------

 -----
 SP_50
 -----
 Symbolic Z-matrix:
 Charge =  1 Multiplicity = 1

                         Standard orientation:
 ---------------------------------------------------------------------
 Center     Atomic      Atomic             Coordinates (Angstroms)
 Number     Number       Type             X           Y           Z
 ---------------------------------------------------------------------
      1          6           0        2.493527   -1.360588    0.002023
      2          6           0        3.692770   -0.672247    0.012726
      3          6           0        3.668626    0.713652    0.013076
      4          6           0        2.451859    1.407622   -0.004592
      5          6           0       -2.451703    1.407723   -0.004348
      6          6           0       -3.668096    0.713805    0.013215
      7          6           0       -3.692621   -0.672092    0.012692
      8          6           0       -2.493283   -1.360476    0.001371
      9          6           0       -0.001130   -1.453396   -0.005525
     10          6           0        0.000078    1.429443   -0.015231
     11          6           0        1.271590   -0.676995   -0.012509
     12          6           0        1.235910    0.730878   -0.005091
     13          6           0       -1.271645   -0.676942   -0.012432
     14          6           0       -1.236032    0.730926   -0.004743
     15          1           0        2.488745   -2.443609   -0.021695
     16          1           0        4.629728   -1.211937    0.007031
     17          1           0        4.610163    1.272222    0.009716
     18          1           0        2.456577    2.489964    0.017593
     19          1           0        0.000076    2.510429   -0.000961
     20          1           0       -2.456398    2.490063    0.018037
     21          1           0       -4.609486    1.272412    0.010117
     22          1           0       -4.629403   -1.211742    0.007010
     23          1           0       -2.488522   -2.443495   -0.022497
     24          1           0       -0.000242   -2.155825    0.875459
     25          1           0       -0.000344   -2.136359   -0.843601
 ---------------------------------------------------------------------

 SCF Done:  E(RM062X) =  -539.759018571     A.U. after   15 cycles

 Excitation energies and oscillator strengths:

 Excited State   1:      Singlet-A      2.8396 eV  436.62 nm  f=0.0296  <S**2>=0.000
      47 -> 48         0.70424
 This state for optimization and/or second-order correction.
 Total Energy, E(TD-HF/TD-DFT) =  -539.654664033
 Copying the excited state density for this state as the 1-particle RhoCI density.

 The electronic state is 1-A.
 Alpha  occ. eigenvalues --  -10.77678 -10.73212 -10.73198 -10.72336 -10.72334
 Alpha  occ. eigenvalues --  -10.71243 -10.71236 -10.70973 -10.70930 -10.70927
 Alpha  occ. eigenvalues --  -10.69839 -10.69834 -10.69680 -10.69673  -1.16530
 Alpha  occ. eigenvalues --   -1.12728  -1.07089  -1.05643  -1.01582  -1.00135
 Alpha  occ. eigenvalues --   -0.95881  -0.91029  -0.86435  -0.85950  -0.83826
 Alpha  occ. eigenvalues --   -0.78427  -0.76039  -0.74470  -0.69561  -0.69224
 Alpha  occ. eigenvalues --   -0.68505  -0.68095  -0.67933  -0.64937  -0.64453
 Alpha  occ. eigenvalues --   -0.62887  -0.61693  -0.60076  -0.59869  -0.59018
 Alpha  occ. eigenvalues --   -0.56872  -0.55147  -0.54737  -0.52541  -0.46823
 Alpha  occ. eigenvalues --   -0.46030  -0.44608
 Alpha virt. eigenvalues --   -0.26117  -0.14549  -0.14067  -0.12626  -0.11182
 Alpha virt. eigenvalues --   -0.10095  -0.09249  -0.08040  -0.07945  -0.07484
 Alpha virt. eigenvalues --   -0.07215  -0.07118  -0.05639  -0.05581  -0.05310

 Mulliken charges:
               1
     1  C    0.092351
     2  C   -0.415689
     3  C   -0.442045
     4  C    0.043086
     5  C    0.043279
     6  C   -0.442106
     7  C   -0.416234
     8  C    0.092015
     9  C   -0.336723
    10  C    0.100402
    11  C   -0.587628
    12  C    0.620397
    13  C   -0.589567
    14  C    0.620508
    15  H    0.236332
    16  H    0.255820
    17  H    0.252974
    18  H    0.220637
    19  H    0.190779
    20  H    0.220615
    21  H    0.252917
    22  H    0.255758
    23  H    0.236393
    24  H    0.250970
    25  H    0.244761
 Sum of Mulliken charges =   1.00000

 Dipole moment (field-independent basis, Debye):
    X=              0.0013    Y=              0.1817    Z=             -0.0007  Tot=              0.1817
 Quadrupole moment (field-independent basis, Debye-Ang):
   XX=            -31.3331   YY=            -56.2627   ZZ=            -84.0614
   XY=              0.0007   XZ=             -0.0012   YZ=              0.1198

 Normal termination of Gaussian 16 at Thu Jul 28 15:45:25 2022.
