 Gaussian 16, Revision C.01,
 Gaussian 16:  ES64L-G16RevC.01  3-Jul-2019

 ---------------------------------------------------------------
 #n M062X/6-311++G(d,p) TD(NStates=1) EmpiricalDispersion=GD3 SP
 ---------------------------------------------------------------

 -------
 SP_-100
 -------
 Symbolic Z-matrix:
 Charge =  1 Multiplicity = 1

                         Standard orientation:
 ---------------------------------------------------------------------
 Center     Atomic      Atomic             Coordinates (Angstroms)
 Number     Number       Type             X           Y           Z
 ---------------------------------------------------------------------
      1          6           0       -2.493352   -1.360799   -0.001928
      2          6           0       -3.703781   -0.672543    0.002428
      3          6           0       -3.688814    0.713280    0.003095
      4          6           0       -2.465989    1.407177   -0.000076
      5          6           0        2.464873    1.407910   -0.001778
      6          6           0        3.685108    0.714372    0.002126
      7          6           0        3.702761   -0.671449    0.002671
      8          6           0        2.491660   -1.360072    0.002648
      9          6           0        0.007918   -1.453369   -0.000996
     10          6           0       -0.000562    1.429199   -0.003079
     11          6           0       -1.259954   -0.677248   -0.002225
     12          6           0       -1.237353    0.730622    0.000212
     13          6           0        1.260331   -0.676874   -0.002749
     14          6           0        1.238188    0.730994   -0.002218
     15          1           0       -2.488734   -2.444005   -0.007192
     16          1           0       -4.639321   -1.212380    0.001340
     17          1           0       -4.611523    1.271663    0.003347
     18          1           0       -2.470392    2.489689    0.005062
     19          1           0       -0.000547    2.510272   -0.000246
     20          1           0        2.469133    2.490426    0.001957
     21          1           0        4.606775    1.273032    0.000561
     22          1           0        4.637061   -1.211010    0.001505
     23          1           0        2.487186   -2.443282   -0.001563
     24          1           0        0.001715   -2.145849   -0.856366
     25          1           0        0.002430   -2.145749    0.862808
 ---------------------------------------------------------------------

 SCF Done:  E(RM062X) =  -539.760006983     A.U. after   15 cycles

 Excitation energies and oscillator strengths:

 Excited State   1:      Singlet-A      2.8187 eV  439.86 nm  f=0.0285  <S**2>=0.000
      47 -> 48         0.70426
 This state for optimization and/or second-order correction.
 Total Energy, E(TD-HF/TD-DFT) =  -539.656421096
 Copying the excited state density for this state as the 1-particle RhoCI density.

 The electronic state is 1-A.
 Alpha  occ. eigenvalues --  -10.77663 -10.73296 -10.73200 -10.72459 -10.72454
 Alpha  occ. eigenvalues --  -10.71421 -10.71369 -10.71029 -10.71012 -10.70981
 Alpha  occ. eigenvalues --  -10.70019 -10.69982 -10.69645 -10.69597  -1.16426
 Alpha  occ. eigenvalues --   -1.12413  -1.06917  -1.05750  -1.01263  -1.00190
 Alpha  occ. eigenvalues --   -0.95762  -0.91061  -0.86417  -0.85892  -0.83814
 Alpha  occ. eigenvalues --   -0.78396  -0.76024  -0.74407  -0.69564  -0.69257
 Alpha  occ. eigenvalues --   -0.68517  -0.68209  -0.68121  -0.64699  -0.64251
 Alpha  occ. eigenvalues --   -0.63097  -0.61897  -0.59985  -0.59640  -0.59106
 Alpha  occ. eigenvalues --   -0.56903  -0.55233  -0.54848  -0.52417  -0.46589
 Alpha  occ. eigenvalues --   -0.46057  -0.44478
 Alpha virt. eigenvalues --   -0.26083  -0.14697  -0.14105  -0.12805  -0.11178
 Alpha virt. eigenvalues --   -0.10085  -0.09226  -0.07983  -0.07965  -0.07474
 Alpha virt. eigenvalues --   -0.07205  -0.07147  -0.05644  -0.05582  -0.05337

 Mulliken charges:
               1
     1  C    0.092611
     2  C   -0.402066
     3  C   -0.439579
     4  C    0.016912
     5  C    0.015566
     6  C   -0.440550
     7  C   -0.407161
     8  C    0.089377
     9  C   -0.329570
    10  C    0.092384
    11  C   -0.634688
    12  C    0.683267
    13  C   -0.643069
    14  C    0.687841
    15  H    0.237149
    16  H    0.256548
    17  H    0.248288
    18  H    0.222231
    19  H    0.190103
    20  H    0.222167
    21  H    0.247755
    22  H    0.256292
    23  H    0.237298
    24  H    0.249578
    25  H    0.251314
 Sum of Mulliken charges =   1.00000

 Dipole moment (field-independent basis, Debye):
    X=             -0.0093    Y=              0.1885    Z=              0.0005  Tot=              0.1887
 Quadrupole moment (field-independent basis, Debye-Ang):
   XX=            -31.0727   YY=            -56.2623   ZZ=            -84.1580
   XY=             -0.0052   XZ=             -0.0086   YZ=              0.0253

 Normal termination of Gaussian 16 at Thu Jul 28 13:39:12 2022.
