 Gaussian 16, Revision C.01,
 Gaussian 16:  ES64L-G16RevC.01  3-Jul-2019

 ---------------------------------------------------------------
 #n M062X/6-311++G(d,p) TD(NStates=1) EmpiricalDispersion=GD3 SP
 ---------------------------------------------------------------

 -----
 SP_75
 -----
 Symbolic Z-matrix:
 Charge =  1 Multiplicity = 1

                         Standard orientation:
 ---------------------------------------------------------------------
 Center     Atomic      Atomic             Coordinates (Angstroms)
 Number     Number       Type             X           Y           Z
 ---------------------------------------------------------------------
      1          6           0        2.492470   -1.360231   -0.000614
      2          6           0        3.697689   -0.671706    0.005020
      3          6           0        3.676601    0.714123    0.005524
      4          6           0        2.458290    1.407765   -0.001322
      5          6           0       -2.458922    1.407354   -0.002295
      6          6           0       -3.678721    0.713505    0.004969
      7          6           0       -3.698277   -0.672330    0.005156
      8          6           0       -2.493441   -1.360663    0.001996
      9          6           0        0.004523   -1.453373   -0.002141
     10          6           0       -0.000316    1.429230   -0.006113
     11          6           0        1.265989   -0.676944   -0.004832
     12          6           0        1.237112    0.730921   -0.001284
     13          6           0       -1.265771   -0.677156   -0.005136
     14          6           0       -1.236630    0.730719   -0.002674
     15          1           0        2.487853   -2.443415   -0.010420
     16          1           0        4.633229   -1.211322    0.002774
     17          1           0        4.608131    1.272729    0.004748
     18          1           0        2.462767    2.490256    0.007981
     19          1           0       -0.000308    2.510292   -0.000418
     20          1           0       -2.463483    2.489848    0.006206
     21          1           0       -4.610843    1.271959    0.003149
     22          1           0       -4.634527   -1.212104    0.002864
     23          1           0       -2.488740   -2.443849   -0.007207
     24          1           0        0.000973   -2.148509    0.865975
     25          1           0        0.001383   -2.143162   -0.853188
 ---------------------------------------------------------------------

 SCF Done:  E(RM062X) =  -539.760157624     A.U. after   15 cycles

 Excitation energies and oscillator strengths:

 Excited State   1:      Singlet-A      2.8303 eV  438.07 nm  f=0.0291  <S**2>=0.000
      47 -> 48         0.70425
 This state for optimization and/or second-order correction.
 Total Energy, E(TD-HF/TD-DFT) =  -539.656147362
 Copying the excited state density for this state as the 1-particle RhoCI density.

 The electronic state is 1-A.
 Alpha  occ. eigenvalues --  -10.77670 -10.73253 -10.73197 -10.72396 -10.72393
 Alpha  occ. eigenvalues --  -10.71331 -10.71302 -10.70979 -10.70978 -10.70969
 Alpha  occ. eigenvalues --  -10.69928 -10.69907 -10.69661 -10.69634  -1.16477
 Alpha  occ. eigenvalues --   -1.12571  -1.07001  -1.05697  -1.01418  -1.00168
 Alpha  occ. eigenvalues --   -0.95821  -0.91045  -0.86425  -0.85920  -0.83820
 Alpha  occ. eigenvalues --   -0.78408  -0.76034  -0.74439  -0.69559  -0.69230
 Alpha  occ. eigenvalues --   -0.68493  -0.68158  -0.68048  -0.64818  -0.64352
 Alpha  occ. eigenvalues --   -0.63001  -0.61797  -0.60037  -0.59756  -0.59064
 Alpha  occ. eigenvalues --   -0.56886  -0.55190  -0.54799  -0.52479  -0.46702
 Alpha  occ. eigenvalues --   -0.46050  -0.44546
 Alpha virt. eigenvalues --   -0.26099  -0.14617  -0.14085  -0.12713  -0.11180
 Alpha virt. eigenvalues --   -0.10089  -0.09238  -0.08003  -0.07962  -0.07479
 Alpha virt. eigenvalues --   -0.07206  -0.07136  -0.05641  -0.05581  -0.05323

 Mulliken charges:
               1
     1  C    0.094190
     2  C   -0.412486
     3  C   -0.441190
     4  C    0.020235
     5  C    0.020474
     6  C   -0.440823
     7  C   -0.409989
     8  C    0.095995
     9  C   -0.336361
    10  C    0.097391
    11  C   -0.627078
    12  C    0.670914
    13  C   -0.620337
    14  C    0.669192
    15  H    0.237170
    16  H    0.255997
    17  H    0.250439
    18  H    0.221505
    19  H    0.190784
    20  H    0.221569
    21  H    0.250706
    22  H    0.256194
    23  H    0.237010
    24  H    0.250661
    25  H    0.247840
 Sum of Mulliken charges =   1.00000

 Dipole moment (field-independent basis, Debye):
    X=             -0.0052    Y=              0.1854    Z=              0.0002  Tot=              0.1855
 Quadrupole moment (field-independent basis, Debye-Ang):
   XX=            -31.2030   YY=            -56.2631   ZZ=            -84.1096
   XY=             -0.0029   XZ=              0.0049   YZ=              0.0488

 Normal termination of Gaussian 16 at Thu Jul 28 16:12:26 2022.
