 Gaussian 16, Revision C.01,
 Gaussian 16:  ES64L-G16RevC.01  3-Jul-2019

 ---------------------------------------------------------------
 #n M062X/6-311++G(d,p) TD(NStates=1) EmpiricalDispersion=GD3 SP
 ---------------------------------------------------------------

 ----
 SP_0
 ----
 Symbolic Z-matrix:
 Charge =  1 Multiplicity = 1

                         Standard orientation:
 ---------------------------------------------------------------------
 Center     Atomic      Atomic             Coordinates (Angstroms)
 Number     Number       Type             X           Y           Z
 ---------------------------------------------------------------------
      1          6           0       -2.491844   -1.360316    0.001994
      2          6           0       -3.706579   -0.671819    0.007677
      3          6           0       -3.692367    0.714029    0.007687
      4          6           0       -2.469740    1.407745   -0.003036
      5          6           0        2.470222    1.407427   -0.002307
      6          6           0        3.693955    0.713558    0.008101
      7          6           0        3.707013   -0.672289    0.007571
      8          6           0        2.492566   -1.360619    0.000031
      9          6           0       -0.003394   -1.453378   -0.003353
     10          6           0        0.000243    1.429281   -0.009129
     11          6           0       -1.256398   -0.676950   -0.007596
     12          6           0       -1.238549    0.730921   -0.003464
     13          6           0        1.256237   -0.677111   -0.007374
     14          6           0        1.238193    0.730757   -0.002424
     15          1           0       -2.487403   -2.443463   -0.012063
     16          1           0       -4.640583   -1.211449    0.004244
     17          1           0       -4.607907    1.272634    0.005365
     18          1           0       -2.473917    2.490204    0.010041
     19          1           0        0.000236    2.510324   -0.000560
     20          1           0        2.474458    2.489881    0.011371
     21          1           0        4.609942    1.272041    0.006555
     22          1           0        4.641548   -1.212037    0.004171
     23          1           0        2.488065   -2.443762   -0.014478
     24          1           0       -0.000738   -2.139392   -0.850014
     25          1           0       -0.001044   -2.152402    0.869108
 ---------------------------------------------------------------------

 SCF Done:  E(RM062X) =  -539.759274534     A.U. after   15 cycles

 Excitation energies and oscillator strengths:

 Excited State   1:      Singlet-A      2.8099 eV  441.24 nm  f=0.0281  <S**2>=0.000
      47 -> 48         0.70427
 This state for optimization and/or second-order correction.
 Total Energy, E(TD-HF/TD-DFT) =  -539.656013255
 Copying the excited state density for this state as the 1-particle RhoCI density.

 The electronic state is 1-A.
 Alpha  occ. eigenvalues --  -10.77660 -10.73286 -10.73244 -10.72500 -10.72497
 Alpha  occ. eigenvalues --  -10.71458 -10.71436 -10.71055 -10.71048 -10.70981
 Alpha  occ. eigenvalues --  -10.70065 -10.70049 -10.69615 -10.69594  -1.16394
 Alpha  occ. eigenvalues --   -1.12307  -1.06863  -1.05781  -1.01166  -1.00197
 Alpha  occ. eigenvalues --   -0.95724  -0.91070  -0.86411  -0.85875  -0.83809
 Alpha  occ. eigenvalues --   -0.78392  -0.76015  -0.74386  -0.69571  -0.69288
 Alpha  occ. eigenvalues --   -0.68564  -0.68235  -0.68135  -0.64622  -0.64184
 Alpha  occ. eigenvalues --   -0.63146  -0.61968  -0.59943  -0.59562  -0.59132
 Alpha  occ. eigenvalues --   -0.56917  -0.55252  -0.54886  -0.52376  -0.46522
 Alpha  occ. eigenvalues --   -0.46052  -0.44431
 Alpha virt. eigenvalues --   -0.26075  -0.14757  -0.14119  -0.12869  -0.11178
 Alpha virt. eigenvalues --   -0.10082  -0.09218  -0.07997  -0.07942  -0.07471
 Alpha virt. eigenvalues --   -0.07211  -0.07148  -0.05645  -0.05582  -0.05348

 Mulliken charges:
               1
     1  C    0.083500
     2  C   -0.402319
     3  C   -0.441307
     4  C    0.027873
     5  C    0.028617
     6  C   -0.440747
     7  C   -0.399884
     8  C    0.084892
     9  C   -0.312903
    10  C    0.093698
    11  C   -0.637595
    12  C    0.668909
    13  C   -0.635243
    14  C    0.666587
    15  H    0.236834
    16  H    0.256620
    17  H    0.246128
    18  H    0.222469
    19  H    0.189280
    20  H    0.222482
    21  H    0.246374
    22  H    0.256705
    23  H    0.236809
    24  H    0.249176
    25  H    0.253046
 Sum of Mulliken charges =   1.00000

 Dipole moment (field-independent basis, Debye):
    X=              0.0040    Y=              0.1902    Z=              0.0004  Tot=              0.1903
 Quadrupole moment (field-independent basis, Debye-Ang):
   XX=            -30.9856   YY=            -56.2613   ZZ=            -84.1904
   XY=              0.0023   XZ=              0.0037   YZ=              0.0717

 Normal termination of Gaussian 16 at Thu Jul 28 15:12:24 2022.
