 Gaussian 16, Revision C.01,
 Gaussian 16:  ES64L-G16RevC.01  3-Jul-2019

 ---------------------------------------------------------------
 #n M062X/6-311++G(d,p) TD(NStates=1) EmpiricalDispersion=GD3 SP
 ---------------------------------------------------------------

 -----
 SP_50
 -----
 Symbolic Z-matrix:
 Charge =  1 Multiplicity = 1

                         Standard orientation:
 ---------------------------------------------------------------------
 Center     Atomic      Atomic             Coordinates (Angstroms)
 Number     Number       Type             X           Y           Z
 ---------------------------------------------------------------------
      1          6           0        2.492441   -1.360275   -0.000631
      2          6           0        3.699526   -0.671762    0.002494
      3          6           0        3.679966    0.714058    0.002828
      4          6           0        2.460643    1.407698   -0.000544
      5          6           0       -2.461119    1.407388   -0.001273
      6          6           0       -3.681556    0.713594    0.002413
      7          6           0       -3.699965   -0.672230    0.002596
      8          6           0       -2.493169   -1.360595    0.001328
      9          6           0        0.003392   -1.453370   -0.001055
     10          6           0       -0.000239    1.429199   -0.003061
     11          6           0        1.264049   -0.676981   -0.002378
     12          6           0        1.237351    0.730885   -0.000471
     13          6           0       -1.263886   -0.677141   -0.002604
     14          6           0       -1.236991    0.730731   -0.001513
     15          1           0        2.487851   -2.443483   -0.005607
     16          1           0        4.634830   -1.211402    0.001378
     17          1           0        4.608357    1.272638    0.002569
     18          1           0        2.465069    2.490212    0.004205
     19          1           0       -0.000232    2.510272   -0.000216
     20          1           0       -2.465606    2.489903    0.002874
     21          1           0       -4.610392    1.272057    0.001371
     22          1           0       -4.635801   -1.211988    0.001446
     23          1           0       -2.488516   -2.443803   -0.003196
     24          1           0        0.000732   -2.146859    0.862787
     25          1           0        0.001039   -2.144740   -0.856383
 ---------------------------------------------------------------------

 SCF Done:  E(RM062X) =  -539.760260945     A.U. after   15 cycles

 Excitation energies and oscillator strengths:

 Excited State   1:      Singlet-A      2.8267 eV  438.62 nm  f=0.0289  <S**2>=0.000
      47 -> 48         0.70426
 This state for optimization and/or second-order correction.
 Total Energy, E(TD-HF/TD-DFT) =  -539.656382978
 Copying the excited state density for this state as the 1-particle RhoCI density.

 The electronic state is 1-A.
 Alpha  occ. eigenvalues --  -10.77667 -10.73254 -10.73212 -10.72416 -10.72414
 Alpha  occ. eigenvalues --  -10.71354 -10.71331 -10.70993 -10.70986 -10.70979
 Alpha  occ. eigenvalues --  -10.69953 -10.69937 -10.69648 -10.69628  -1.16459
 Alpha  occ. eigenvalues --   -1.12518  -1.06973  -1.05714  -1.01365  -1.00177
 Alpha  occ. eigenvalues --   -0.95802  -0.91051  -0.86421  -0.85911  -0.83818
 Alpha  occ. eigenvalues --   -0.78404  -0.76031  -0.74429  -0.69559  -0.69237
 Alpha  occ. eigenvalues --   -0.68497  -0.68176  -0.68078  -0.64778  -0.64318
 Alpha  occ. eigenvalues --   -0.63035  -0.61832  -0.60021  -0.59718  -0.59079
 Alpha  occ. eigenvalues --   -0.56891  -0.55202  -0.54820  -0.52458  -0.46663
 Alpha  occ. eigenvalues --   -0.46054  -0.44524
 Alpha virt. eigenvalues --   -0.26093  -0.14642  -0.14091  -0.12743  -0.11179
 Alpha virt. eigenvalues --   -0.10088  -0.09234  -0.07992  -0.07967  -0.07477
 Alpha virt. eigenvalues --   -0.07204  -0.07142  -0.05642  -0.05581  -0.05327

 Mulliken charges:
               1
     1  C    0.093863
     2  C   -0.409971
     3  C   -0.440611
     4  C    0.015971
     5  C    0.016322
     6  C   -0.440299
     7  C   -0.408004
     8  C    0.095259
     9  C   -0.336071
    10  C    0.095064
    11  C   -0.633645
    12  C    0.681406
    13  C   -0.629007
    14  C    0.679852
    15  H    0.237284
    16  H    0.256130
    17  H    0.249634
    18  H    0.221768
    19  H    0.190632
    20  H    0.221809
    21  H    0.249844
    22  H    0.256265
    23  H    0.237183
    24  H    0.250401
    25  H    0.248920
 Sum of Mulliken charges =   1.00000

 Dipole moment (field-independent basis, Debye):
    X=             -0.0039    Y=              0.1865    Z=              0.0002  Tot=              0.1866
 Quadrupole moment (field-independent basis, Debye-Ang):
   XX=            -31.1595   YY=            -56.2630   ZZ=            -84.1257
   XY=             -0.0022   XZ=              0.0037   YZ=              0.0246

 Normal termination of Gaussian 16 at Thu Jul 28 15:51:22 2022.
