 Gaussian 16, Revision C.01,
 Gaussian 16:  ES64L-G16RevC.01  3-Jul-2019

 ---------------------------------------------------------------
 #n M062X/6-311++G(d,p) TD(NStates=1) EmpiricalDispersion=GD3 SP
 ---------------------------------------------------------------

 -----
 SP_25
 -----
 Symbolic Z-matrix:
 Charge =  1 Multiplicity = 1

                         Standard orientation:
 ---------------------------------------------------------------------
 Center     Atomic      Atomic             Coordinates (Angstroms)
 Number     Number       Type             X           Y           Z
 ---------------------------------------------------------------------
      1          6           0        2.492413   -1.360326   -0.000648
      2          6           0        3.701362   -0.671833   -0.000033
      3          6           0        3.683331    0.713985    0.000133
      4          6           0        2.462997    1.407642    0.000234
      5          6           0       -2.463315    1.407434   -0.000252
      6          6           0       -3.684391    0.713675   -0.000144
      7          6           0       -3.701654   -0.672145    0.000036
      8          6           0       -2.492897   -1.360536    0.000659
      9          6           0        0.002262   -1.453369    0.000031
     10          6           0       -0.000160    1.429189   -0.000009
     11          6           0        1.262109   -0.677012    0.000077
     12          6           0        1.237591    0.730856    0.000342
     13          6           0       -1.262001   -0.677118   -0.000073
     14          6           0       -1.237351    0.730752   -0.000353
     15          1           0        2.487850   -2.443542   -0.000793
     16          1           0        4.636430   -1.211493   -0.000018
     17          1           0        4.608584    1.272543    0.000390
     18          1           0        2.467370    2.490163    0.000429
     19          1           0       -0.000155    2.510266   -0.000015
     20          1           0       -2.467730    2.489955   -0.000458
     21          1           0       -4.609940    1.272154   -0.000407
     22          1           0       -4.637076   -1.211885    0.000028
     23          1           0       -2.488292   -2.443752    0.000815
     24          1           0        0.000489   -2.145232    0.859595
     25          1           0        0.000693   -2.146341   -0.859575
 ---------------------------------------------------------------------

 SCF Done:  E(RM062X) =  -539.760228010     A.U. after   15 cycles

 Excitation energies and oscillator strengths:

 Excited State   1:      Singlet-A      2.8228 eV  439.22 nm  f=0.0287  <S**2>=0.000
      47 -> 48         0.70426
 This state for optimization and/or second-order correction.
 Total Energy, E(TD-HF/TD-DFT) =  -539.656491104
 Copying the excited state density for this state as the 1-particle RhoCI density.

 The electronic state is 1-A.
 Alpha  occ. eigenvalues --  -10.77665 -10.73254 -10.73227 -10.72436 -10.72434
 Alpha  occ. eigenvalues --  -10.71376 -10.71361 -10.71007 -10.71002 -10.70979
 Alpha  occ. eigenvalues --  -10.69978 -10.69967 -10.69636 -10.69623  -1.16442
 Alpha  occ. eigenvalues --   -1.12466  -1.06945  -1.05731  -1.01313  -1.00185
 Alpha  occ. eigenvalues --   -0.95782  -0.91056  -0.86418  -0.85902  -0.83816
 Alpha  occ. eigenvalues --   -0.78400  -0.76028  -0.74418  -0.69561  -0.69246
 Alpha  occ. eigenvalues --   -0.68505  -0.68193  -0.68102  -0.64739  -0.64284
 Alpha  occ. eigenvalues --   -0.63066  -0.61867  -0.60003  -0.59679  -0.59093
 Alpha  occ. eigenvalues --   -0.56897  -0.55215  -0.54839  -0.52438  -0.46625
 Alpha  occ. eigenvalues --   -0.46056  -0.44501
 Alpha virt. eigenvalues --   -0.26088  -0.14669  -0.14098  -0.12773  -0.11179
 Alpha virt. eigenvalues --   -0.10086  -0.09230  -0.07983  -0.07970  -0.07476
 Alpha virt. eigenvalues --   -0.07203  -0.07146  -0.05643  -0.05581  -0.05332

 Mulliken charges:
               1
     1  C    0.092728
     2  C   -0.407448
     3  C   -0.440232
     4  C    0.014572
     5  C    0.014892
     6  C   -0.439992
     7  C   -0.406068
     8  C    0.093670
     9  C   -0.333947
    10  C    0.093287
    11  C   -0.637834
    12  C    0.686571
    13  C   -0.635069
    14  C    0.685388
    15  H    0.237310
    16  H    0.256263
    17  H    0.248815
    18  H    0.222000
    19  H    0.190402
    20  H    0.222023
    21  H    0.248962
    22  H    0.256345
    23  H    0.237256
    24  H    0.250112
    25  H    0.249995
 Sum of Mulliken charges =   1.00000

 Dipole moment (field-independent basis, Debye):
    X=             -0.0026    Y=              0.1876    Z=              0.0001  Tot=              0.1876
 Quadrupole moment (field-independent basis, Debye-Ang):
   XX=            -31.1160   YY=            -56.2627   ZZ=            -84.1419
   XY=             -0.0015   XZ=              0.0025   YZ=              0.0004

 Normal termination of Gaussian 16 at Thu Jul 28 15:30:21 2022.
