 Gaussian 16, Revision C.01,
 Gaussian 16:  ES64L-G16RevC.01  3-Jul-2019

 ---------------------------------------------------------------
 #n M062X/6-311++G(d,p) TD(NStates=1) EmpiricalDispersion=GD3 SP
 ---------------------------------------------------------------

 -------
 SP_-150
 -------
 Symbolic Z-matrix:
 Charge =  1 Multiplicity = 1

                         Standard orientation:
 ---------------------------------------------------------------------
 Center     Atomic      Atomic             Coordinates (Angstroms)
 Number     Number       Type             X           Y           Z
 ---------------------------------------------------------------------
      1          6           0       -2.493018   -1.360894   -0.001236
      2          6           0       -3.709135   -0.672731    0.010034
      3          6           0       -3.698378    0.713135    0.011046
      4          6           0       -2.472899    1.407197   -0.002644
      5          6           0        2.471612    1.408051   -0.004588
      6          6           0        3.694144    0.714395    0.009942
      7          6           0        3.707982   -0.671478    0.010319
      8          6           0        2.491095   -1.360097    0.004002
      9          6           0        0.009052   -1.453386   -0.004287
     10          6           0       -0.000652    1.429351   -0.012226
     11          6           0       -1.254190   -0.677218   -0.009673
     12          6           0       -1.238197    0.730645   -0.002571
     13          6           0        1.254620   -0.676789   -0.010262
     14          6           0        1.239144    0.731089   -0.005345
     15          1           0       -2.488505   -2.443979   -0.020847
     16          1           0       -4.643789   -1.212570    0.005539
     17          1           0       -4.611526    1.271534    0.009482
     18          1           0       -2.477122    2.489596    0.015961
     19          1           0       -0.000634    2.510370   -0.000835
     20          1           0        2.475676    2.490465    0.012413
     21          1           0        4.606097    1.273122    0.006313
     22          1           0        4.641218   -1.211001    0.005739
     23          1           0        2.486740   -2.443194   -0.014405
     24          1           0        0.001972   -2.140635   -0.846785
     25          1           0        0.002789   -2.151328    0.872357
 ---------------------------------------------------------------------

 SCF Done:  E(RM062X) =  -539.758691207     A.U. after   15 cycles

 Excitation energies and oscillator strengths:

 Excited State   1:      Singlet-A      2.8051 eV  442.00 nm  f=0.0279  <S**2>=0.000
      47 -> 48         0.70427
 This state for optimization and/or second-order correction.
 Total Energy, E(TD-HF/TD-DFT) =  -539.655605970
 Copying the excited state density for this state as the 1-particle RhoCI density.

 The electronic state is 1-A.
 Alpha  occ. eigenvalues --  -10.77658 -10.73328 -10.73218 -10.72523 -10.72518
 Alpha  occ. eigenvalues --  -10.71503 -10.71444 -10.71077 -10.71058 -10.70983
 Alpha  occ. eigenvalues --  -10.70106 -10.70064 -10.69624 -10.69570  -1.16379
 Alpha  occ. eigenvalues --   -1.12253  -1.06837  -1.05798  -1.01120  -1.00196
 Alpha  occ. eigenvalues --   -0.95704  -0.91074  -0.86410  -0.85865  -0.83806
 Alpha  occ. eigenvalues --   -0.78390  -0.76010  -0.74375  -0.69577  -0.69306
 Alpha  occ. eigenvalues --   -0.68590  -0.68246  -0.68139  -0.64583  -0.64152
 Alpha  occ. eigenvalues --   -0.63171  -0.61996  -0.59922  -0.59521  -0.59145
 Alpha  occ. eigenvalues --   -0.56924  -0.55271  -0.54890  -0.52356  -0.46492
 Alpha  occ. eigenvalues --   -0.46046  -0.44406
 Alpha virt. eigenvalues --   -0.26071  -0.14788  -0.14127  -0.12902  -0.11177
 Alpha virt. eigenvalues --   -0.10081  -0.09214  -0.08004  -0.07933  -0.07469
 Alpha virt. eigenvalues --   -0.07219  -0.07145  -0.05646  -0.05582  -0.05353

 Mulliken charges:
               1
     1  C    0.081442
     2  C   -0.395568
     3  C   -0.440824
     4  C    0.038461
     5  C    0.036245
     6  C   -0.442524
     7  C   -0.402404
     8  C    0.077830
     9  C   -0.303342
    10  C    0.094267
    11  C   -0.629007
    12  C    0.649105
    13  C   -0.633567
    14  C    0.655744
    15  H    0.236494
    16  H    0.256890
    17  H    0.245682
    18  H    0.222573
    19  H    0.188779
    20  H    0.222554
    21  H    0.245006
    22  H    0.256696
    23  H    0.236509
    24  H    0.248534
    25  H    0.254424
 Sum of Mulliken charges =   1.00000

 Dipole moment (field-independent basis, Debye):
    X=             -0.0108    Y=              0.1908    Z=              0.0014  Tot=              0.1911
 Quadrupole moment (field-independent basis, Debye-Ang):
   XX=            -30.9427   YY=            -56.2606   ZZ=            -84.2067
   XY=             -0.0061   XZ=             -0.0098   YZ=              0.0978

 Normal termination of Gaussian 16 at Thu Jul 28 12:58:39 2022.
