 Gaussian 16, Revision C.01,
 Gaussian 16:  ES64L-G16RevC.01  3-Jul-2019

 ---------------------------------------------------------------
 #n M062X/6-311++G(d,p) TD(NStates=1) EmpiricalDispersion=GD3 SP
 ---------------------------------------------------------------

 ------
 SP_150
 ------
 Symbolic Z-matrix:
 Charge =  1 Multiplicity = 1

                         Standard orientation:
 ---------------------------------------------------------------------
 Center     Atomic      Atomic             Coordinates (Angstroms)
 Number     Number       Type             X           Y           Z
 ---------------------------------------------------------------------
      1          6           0        2.493364   -1.360457    0.001426
      2          6           0        3.687108   -0.672140    0.020272
      3          6           0        3.658000    0.713873    0.021296
      4          6           0        2.444646    1.408079   -0.006687
      5          6           0       -2.445265    1.407685   -0.007661
      6          6           0       -3.660122    0.713268    0.020739
      7          6           0       -3.687708   -0.672762    0.020401
      8          6           0       -2.494346   -1.360922    0.004028
      9          6           0        0.004519   -1.453440   -0.008755
     10          6           0       -0.000307    1.429839   -0.024390
     11          6           0        1.277465   -0.676714   -0.019790
     12          6           0        1.235316    0.731147   -0.007183
     13          6           0       -1.277245   -0.676923   -0.020103
     14          6           0       -1.234826    0.730964   -0.008576
     15          1           0        2.488526   -2.443167   -0.036926
     16          1           0        4.624598   -1.211685    0.011203
     17          1           0        4.608808    1.272640    0.016651
     18          1           0        2.449496    2.490134    0.029354
     19          1           0       -0.000299    2.510682   -0.001574
     20          1           0       -2.450204    2.489753    0.027578
     21          1           0       -4.611516    1.271894    0.015037
     22          1           0       -4.625908   -1.212463    0.011282
     23          1           0       -2.489417   -2.443641   -0.033722
     24          1           0        0.000961   -2.160588    0.884978
     25          1           0        0.001371   -2.132547   -0.833964
 ---------------------------------------------------------------------

 SCF Done:  E(RM062X) =  -539.756705290     A.U. after   15 cycles

 Excitation energies and oscillator strengths:

 Excited State   1:      Singlet-A      2.8468 eV  435.52 nm  f=0.0301  <S**2>=0.000
      47 -> 48         0.70422
 This state for optimization and/or second-order correction.
 Total Energy, E(TD-HF/TD-DFT) =  -539.652086001
 Copying the excited state density for this state as the 1-particle RhoCI density.

 The electronic state is 1-A.
 Alpha  occ. eigenvalues --  -10.77688 -10.73214 -10.73158 -10.72279 -10.72275
 Alpha  occ. eigenvalues --  -10.71178 -10.71149 -10.70969 -10.70889 -10.70880
 Alpha  occ. eigenvalues --  -10.69769 -10.69748 -10.69722 -10.69695  -1.16585
 Alpha  occ. eigenvalues --   -1.12884  -1.07180  -1.05587  -1.01752  -1.00092
 Alpha  occ. eigenvalues --   -0.95942  -0.91010  -0.86449  -0.85979  -0.83831
 Alpha  occ. eigenvalues --   -0.78451  -0.76041  -0.74500  -0.69568  -0.69236
 Alpha  occ. eigenvalues --   -0.68526  -0.68022  -0.67803  -0.65055  -0.64556
 Alpha  occ. eigenvalues --   -0.62758  -0.61587  -0.60102  -0.59977  -0.58968
 Alpha  occ. eigenvalues --   -0.56861  -0.55105  -0.54662  -0.52604  -0.46950
 Alpha  occ. eigenvalues --   -0.46002  -0.44664
 Alpha virt. eigenvalues --   -0.26139  -0.14491  -0.14053  -0.12545  -0.11185
 Alpha virt. eigenvalues --   -0.10102  -0.09261  -0.08079  -0.07932  -0.07488
 Alpha virt. eigenvalues --   -0.07230  -0.07095  -0.05637  -0.05582  -0.05299

 Mulliken charges:
               1
     1  C    0.086750
     2  C   -0.417553
     3  C   -0.440574
     4  C    0.068768
     5  C    0.066816
     6  C   -0.440506
     7  C   -0.415572
     8  C    0.087409
     9  C   -0.350175
    10  C    0.092024
    11  C   -0.550233
    12  C    0.570240
    13  C   -0.542322
    14  C    0.570933
    15  H    0.235793
    16  H    0.255255
    17  H    0.255024
    18  H    0.219352
    19  H    0.190145
    20  H    0.219449
    21  H    0.255201
    22  H    0.255562
    23  H    0.235456
    24  H    0.251351
    25  H    0.241407
 Sum of Mulliken charges =   1.00000

 Dipole moment (field-independent basis, Debye):
    X=             -0.0050    Y=              0.1771    Z=             -0.0016  Tot=              0.1771
 Quadrupole moment (field-independent basis, Debye-Ang):
   XX=            -31.4649   YY=            -56.2613   ZZ=            -84.0133
   XY=             -0.0027   XZ=              0.0048   YZ=              0.1920

 Normal termination of Gaussian 16 at Thu Jul 28 17:11:02 2022.
