 Gaussian 16, Revision C.01,
 Gaussian 16:  ES64L-G16RevC.01  3-Jul-2019

 ---------------------------------------------------------------
 #n M062X/6-311++G(d,p) TD(NStates=1) EmpiricalDispersion=GD3 SP
 ---------------------------------------------------------------

 ------
 SP_-25
 ------
 Symbolic Z-matrix:
 Charge =  1 Multiplicity = 1

                         Standard orientation:
 ---------------------------------------------------------------------
 Center     Atomic      Atomic             Coordinates (Angstroms)
 Number     Number       Type             X           Y           Z
 ---------------------------------------------------------------------
      1          6           0        2.493714   -1.360741    0.002637
      2          6           0        3.696590   -0.672444    0.007706
      3          6           0        3.675886    0.713409    0.007552
      4          6           0        2.456724    1.407332   -0.003271
      5          6           0       -2.455938    1.407841   -0.002055
      6          6           0       -3.673236    0.714178    0.008246
      7          6           0       -3.695852   -0.671664    0.007537
      8          6           0       -2.492497   -1.360194   -0.000625
      9          6           0       -0.005652   -1.453378   -0.003382
     10          6           0        0.000394    1.429281   -0.009120
     11          6           0        1.267656   -0.677163   -0.007678
     12          6           0        1.236269    0.730715   -0.003807
     13          6           0       -1.267928   -0.676898   -0.007296
     14          6           0       -1.236872    0.730964   -0.002069
     15          1           0        2.488964   -2.443888   -0.011275
     16          1           0        4.633253   -1.212232    0.004257
     17          1           0        4.611294    1.271858    0.004966
     18          1           0        2.461359    2.489791    0.009611
     19          1           0        0.000383    2.510324   -0.000545
     20          1           0       -2.460466    2.490294    0.011831
     21          1           0       -4.607905    1.272816    0.006968
     22          1           0       -4.631628   -1.211255    0.004147
     23          1           0       -2.487854   -2.443337   -0.015290
     24          1           0       -0.001214   -2.152957    0.869095
     25          1           0       -0.001726   -2.138837   -0.850020
 ---------------------------------------------------------------------

 SCF Done:  E(RM062X) =  -539.759859200     A.U. after   15 cycles

 Excitation energies and oscillator strengths:

 Excited State   1:      Singlet-A      2.8336 eV  437.55 nm  f=0.0293  <S**2>=0.000
      47 -> 48         0.70425
 This state for optimization and/or second-order correction.
 Total Energy, E(TD-HF/TD-DFT) =  -539.655726244
 Copying the excited state density for this state as the 1-particle RhoCI density.

 The electronic state is 1-A.
 Alpha  occ. eigenvalues --  -10.77672 -10.73253 -10.73183 -10.72376 -10.72372
 Alpha  occ. eigenvalues --  -10.71309 -10.71272 -10.70976 -10.70965 -10.70953
 Alpha  occ. eigenvalues --  -10.69904 -10.69877 -10.69674 -10.69640  -1.16494
 Alpha  occ. eigenvalues --   -1.12623  -1.07030  -1.05680  -1.01472  -1.00158
 Alpha  occ. eigenvalues --   -0.95841  -0.91040  -0.86429  -0.85930  -0.83822
 Alpha  occ. eigenvalues --   -0.78414  -0.76036  -0.74449  -0.69560  -0.69226
 Alpha  occ. eigenvalues --   -0.68496  -0.68138  -0.68011  -0.64857  -0.64386
 Alpha  occ. eigenvalues --   -0.62966  -0.61761  -0.60051  -0.59793  -0.59049
 Alpha  occ. eigenvalues --   -0.56881  -0.55178  -0.54777  -0.52500  -0.46741
 Alpha  occ. eigenvalues --   -0.46044  -0.44567
 Alpha virt. eigenvalues --   -0.26105  -0.14593  -0.14079  -0.12683  -0.11181
 Alpha virt. eigenvalues --   -0.10091  -0.09242  -0.08016  -0.07955  -0.07481
 Alpha virt. eigenvalues --   -0.07208  -0.07132  -0.05641  -0.05581  -0.05319

 Mulliken charges:
               1
     1  C    0.095715
     2  C   -0.411798
     3  C   -0.441346
     4  C    0.026628
     5  C    0.026691
     6  C   -0.441753
     7  C   -0.414776
     8  C    0.093632
     9  C   -0.335688
    10  C    0.099430
    11  C   -0.609181
    12  C    0.654738
    13  C   -0.618160
    14  C    0.656386
    15  H    0.236763
    16  H    0.256130
    17  H    0.251545
    18  H    0.221303
    19  H    0.190865
    20  H    0.221213
    21  H    0.251228
    22  H    0.255862
    23  H    0.236996
    24  H    0.250561
    25  H    0.247015
 Sum of Mulliken charges =   1.00000

 Dipole moment (field-independent basis, Debye):
    X=              0.0065    Y=              0.1843    Z=             -0.0005  Tot=              0.1844
 Quadrupole moment (field-independent basis, Debye-Ang):
   XX=            -31.2462   YY=            -56.2630   ZZ=            -84.0935
   XY=              0.0036   XZ=             -0.0061   YZ=              0.0712

 Normal termination of Gaussian 16 at Thu Jul 28 14:40:39 2022.
