 Gaussian 16, Revision C.01,
 Gaussian 16:  ES64L-G16RevC.01  3-Jul-2019

 ---------------------------------------------------------------
 #n M062X/6-311++G(d,p) TD(NStates=1) EmpiricalDispersion=GD3 SP
 ---------------------------------------------------------------

 -------
 SP_-100
 -------
 Symbolic Z-matrix:
 Charge =  1 Multiplicity = 1

                         Standard orientation:
 ---------------------------------------------------------------------
 Center     Atomic      Atomic             Coordinates (Angstroms)
 Number     Number       Type             X           Y           Z
 ---------------------------------------------------------------------
      1          6           0       -2.491995   -1.360673    0.001389
      2          6           0       -3.712226   -0.672406    0.015217
      3          6           0       -3.702990    0.713525    0.015904
      4          6           0       -2.476968    1.407623   -0.005135
      5          6           0        2.476644    1.407840   -0.005621
      6          6           0        3.701932    0.713843    0.015628
      7          6           0        3.711940   -0.672092    0.015289
      8          6           0        2.491516   -1.360480    0.002700
      9          6           0        0.002264   -1.453409   -0.006581
     10          6           0       -0.000164    1.429555   -0.018291
     11          6           0       -1.250527   -0.676980   -0.014888
     12          6           0       -1.239153    0.730889   -0.005562
     13          6           0        1.250633   -0.676873   -0.015034
     14          6           0        1.239389    0.731003   -0.006255
     15          1           0       -2.487616   -2.443605   -0.027303
     16          1           0       -4.645698   -1.212102    0.008406
     17          1           0       -4.609266    1.272102    0.012282
     18          1           0       -2.481006    2.489883    0.021798
     19          1           0       -0.000160    2.510500   -0.001176
     20          1           0        2.480644    2.490105    0.020912
     21          1           0        4.607908    1.272503    0.011492
     22          1           0        4.645058   -1.211709    0.008458
     23          1           0        2.487176   -2.443415   -0.025692
     24          1           0        0.000495   -2.135434   -0.840388
     25          1           0        0.000699   -2.157019    0.878647
 ---------------------------------------------------------------------

 SCF Done:  E(RM062X) =  -539.757150811     A.U. after   15 cycles

 Excitation energies and oscillator strengths:

 Excited State   1:      Singlet-A      2.7949 eV  443.61 nm  f=0.0275  <S**2>=0.000
      47 -> 48         0.70427
 This state for optimization and/or second-order correction.
 Total Energy, E(TD-HF/TD-DFT) =  -539.654440085
 Copying the excited state density for this state as the 1-particle RhoCI density.

 The electronic state is 1-A.
 Alpha  occ. eigenvalues --  -10.77656 -10.73305 -10.73278 -10.72565 -10.72563
 Alpha  occ. eigenvalues --  -10.71534 -10.71519 -10.71102 -10.71097 -10.70982
 Alpha  occ. eigenvalues --  -10.70148 -10.70138 -10.69589 -10.69576  -1.16348
 Alpha  occ. eigenvalues --   -1.12147  -1.06786  -1.05826  -1.01035  -1.00191
 Alpha  occ. eigenvalues --   -0.95666  -0.91082  -0.86406  -0.85849  -0.83801
 Alpha  occ. eigenvalues --   -0.78389  -0.75998  -0.74354  -0.69589  -0.69353
 Alpha  occ. eigenvalues --   -0.68664  -0.68263  -0.68118  -0.64508  -0.64085
 Alpha  occ. eigenvalues --   -0.63205  -0.62065  -0.59873  -0.59441  -0.59168
 Alpha  occ. eigenvalues --   -0.56942  -0.55285  -0.54924  -0.52315  -0.46441
 Alpha  occ. eigenvalues --   -0.46024  -0.44355
 Alpha virt. eigenvalues --   -0.26065  -0.14856  -0.14142  -0.12970  -0.11177
 Alpha virt. eigenvalues --   -0.10079  -0.09207  -0.08020  -0.07910  -0.07465
 Alpha virt. eigenvalues --   -0.07231  -0.07140  -0.05647  -0.05583  -0.05364

 Mulliken charges:
               1
     1  C    0.068713
     2  C   -0.392977
     3  C   -0.442410
     4  C    0.059001
     5  C    0.058293
     6  C   -0.442936
     7  C   -0.394836
     8  C    0.067773
     9  C   -0.284132
    10  C    0.092776
    11  C   -0.614966
    12  C    0.614766
    13  C   -0.615293
    14  C    0.616670
    15  H    0.235802
    16  H    0.257053
    17  H    0.243590
    18  H    0.222636
    19  H    0.187632
    20  H    0.222638
    21  H    0.243410
    22  H    0.257021
    23  H    0.235779
    24  H    0.247824
    25  H    0.256172
 Sum of Mulliken charges =   1.00000

 Dipole moment (field-independent basis, Debye):
    X=             -0.0027    Y=              0.1920    Z=              0.0020  Tot=              0.1920
 Quadrupole moment (field-independent basis, Debye-Ang):
   XX=            -30.8559   YY=            -56.2589   ZZ=            -84.2390
   XY=             -0.0015   XZ=             -0.0025   YZ=              0.1448

 Normal termination of Gaussian 16 at Thu Jul 28 13:47:36 2022.
