 Gaussian 16, Revision C.01,
 Gaussian 16:  ES64L-G16RevC.01  3-Jul-2019

 ---------------------------------------------------------------
 #n M062X/6-311++G(d,p) TD(NStates=1) EmpiricalDispersion=GD3 SP
 ---------------------------------------------------------------

 -------
 SP_-125
 -------
 Symbolic Z-matrix:
 Charge =  1 Multiplicity = 1

                         Standard orientation:
 ---------------------------------------------------------------------
 Center     Atomic      Atomic             Coordinates (Angstroms)
 Number     Number       Type             X           Y           Z
 ---------------------------------------------------------------------
      1          6           0       -2.493321   -1.360857   -0.001913
      2          6           0       -3.705614   -0.672643    0.004953
      3          6           0       -3.692179    0.713187    0.005790
      4          6           0       -2.468345    1.407138   -0.000854
      5          6           0        2.467066    1.407981   -0.002799
      6          6           0        3.687944    0.714440    0.004684
      7          6           0        3.704453   -0.671392    0.005233
      8          6           0        2.491392   -1.360038    0.003319
      9          6           0        0.009050   -1.453372   -0.002083
     10          6           0       -0.000645    1.429229   -0.006131
     11          6           0       -1.258014   -0.677264   -0.004682
     12          6           0       -1.237594    0.730604   -0.000602
     13          6           0        1.258446   -0.676836   -0.005277
     14          6           0        1.238547    0.731035   -0.003378
     15          1           0       -2.488732   -2.444039   -0.012008
     16          1           0       -4.640918   -1.212497    0.002734
     17          1           0       -4.611750    1.271558    0.005522
     18          1           0       -2.472695    2.489626    0.008838
     19          1           0       -0.000628    2.510292   -0.000448
     20          1           0        2.471254    2.490477    0.005290
     21          1           0        4.606323    1.273129    0.002343
     22          1           0        4.638339   -1.210930    0.002926
     23          1           0        2.486964   -2.443226   -0.005572
     24          1           0        0.001964   -2.144271   -0.853173
     25          1           0        0.002781   -2.147399    0.865999
 ---------------------------------------------------------------------

 SCF Done:  E(RM062X) =  -539.759693704     A.U. after   15 cycles

 Excitation energies and oscillator strengths:

 Excited State   1:      Singlet-A      2.8144 eV  440.54 nm  f=0.0283  <S**2>=0.000
      47 -> 48         0.70426
 This state for optimization and/or second-order correction.
 Total Energy, E(TD-HF/TD-DFT) =  -539.656266478
 Copying the excited state density for this state as the 1-particle RhoCI density.

 The electronic state is 1-A.
 Alpha  occ. eigenvalues --  -10.77661 -10.73311 -10.73201 -10.72480 -10.72475
 Alpha  occ. eigenvalues --  -10.71450 -10.71391 -10.71046 -10.71026 -10.70982
 Alpha  occ. eigenvalues --  -10.70050 -10.70007 -10.69640 -10.69585  -1.16410
 Alpha  occ. eigenvalues --   -1.12360  -1.06890  -1.05767  -1.01214  -1.00194
 Alpha  occ. eigenvalues --   -0.95743  -0.91065  -0.86414  -0.85882  -0.83812
 Alpha  occ. eigenvalues --   -0.78393  -0.76020  -0.74397  -0.69568  -0.69271
 Alpha  occ. eigenvalues --   -0.68535  -0.68223  -0.68134  -0.64660  -0.64218
 Alpha  occ. eigenvalues --   -0.63125  -0.61930  -0.59965  -0.59600  -0.59120
 Alpha  occ. eigenvalues --   -0.56909  -0.55247  -0.54861  -0.52397  -0.46555
 Alpha  occ. eigenvalues --   -0.46056  -0.44454
 Alpha virt. eigenvalues --   -0.26079  -0.14726  -0.14112  -0.12837  -0.11178
 Alpha virt. eigenvalues --   -0.10083  -0.09222  -0.07989  -0.07955  -0.07472
 Alpha virt. eigenvalues --   -0.07208  -0.07148  -0.05645  -0.05582  -0.05342

 Mulliken charges:
               1
     1  C    0.089868
     2  C   -0.399671
     3  C   -0.439754
     4  C    0.021738
     5  C    0.019981
     6  C   -0.441046
     7  C   -0.405819
     8  C    0.086209
     9  C   -0.322480
    10  C    0.092663
    11  C   -0.634884
    12  C    0.676400
    13  C   -0.642853
    14  C    0.682094
    15  H    0.237003
    16  H    0.256670
    17  H    0.247458
    18  H    0.222380
    19  H    0.189726
    20  H    0.222326
    21  H    0.246826
    22  H    0.256411
    23  H    0.237123
    24  H    0.249244
    25  H    0.252386
 Sum of Mulliken charges =   1.00000

 Dipole moment (field-independent basis, Debye):
    X=             -0.0106    Y=              0.1893    Z=              0.0008  Tot=              0.1896
 Quadrupole moment (field-independent basis, Debye-Ang):
   XX=            -31.0293   YY=            -56.2618   ZZ=            -84.1742
   XY=             -0.0060   XZ=             -0.0098   YZ=              0.0496

 Normal termination of Gaussian 16 at Thu Jul 28 13:17:58 2022.
