 Gaussian 16, Revision C.01,
 Gaussian 16:  ES64L-G16RevC.01  3-Jul-2019

 ---------------------------------------------------------------
 #n M062X/6-311++G(d,p) TD(NStates=1) EmpiricalDispersion=GD3 SP
 ---------------------------------------------------------------

 -----
 SP_75
 -----
 Symbolic Z-matrix:
 Charge =  1 Multiplicity = 1

                         Standard orientation:
 ---------------------------------------------------------------------
 Center     Atomic      Atomic             Coordinates (Angstroms)
 Number     Number       Type             X           Y           Z
 ---------------------------------------------------------------------
      1          6           0       -2.491123   -1.360013    0.003941
      2          6           0       -3.706145   -0.671350    0.007777
      3          6           0       -3.690779    0.714500    0.007289
      4          6           0       -2.469259    1.408063   -0.003739
      5          6           0        2.470703    1.407109   -0.001552
      6          6           0        3.695543    0.713086    0.008532
      7          6           0        3.707447   -0.672759    0.007460
      8          6           0        2.493290   -1.360922   -0.001948
      9          6           0       -0.010182   -1.453376   -0.003450
     10          6           0        0.000729    1.429281   -0.009102
     11          6           0       -1.256560   -0.676789   -0.007823
     12          6           0       -1.238904    0.731086   -0.004489
     13          6           0        1.256075   -0.677271   -0.007157
     14          6           0        1.237836    0.730594   -0.001367
     15          1           0       -2.486742   -2.443163   -0.009681
     16          1           0       -4.639618   -1.210861    0.004304
     17          1           0       -4.605871    1.273225    0.004200
     18          1           0       -2.473375    2.490526    0.008754
     19          1           0        0.000709    2.510324   -0.000517
     20          1           0        2.474999    2.489558    0.012745
     21          1           0        4.611978    1.271448    0.007770
     22          1           0        4.642514   -1.212626    0.004084
     23          1           0        2.488729   -2.444062   -0.016925
     24          1           0       -0.002213   -2.137728   -0.850032
     25          1           0       -0.003134   -2.154065    0.869067
 ---------------------------------------------------------------------

 SCF Done:  E(RM062X) =  -539.759136983     A.U. after   15 cycles

 Excitation energies and oscillator strengths:

 Excited State   1:      Singlet-A      2.8098 eV  441.25 nm  f=0.0281  <S**2>=0.000
      47 -> 48         0.70426
 This state for optimization and/or second-order correction.
 Total Energy, E(TD-HF/TD-DFT) =  -539.655878342
 Copying the excited state density for this state as the 1-particle RhoCI density.

 The electronic state is 1-A.
 Alpha  occ. eigenvalues --  -10.77660 -10.73327 -10.73202 -10.72502 -10.72496
 Alpha  occ. eigenvalues --  -10.71480 -10.71414 -10.71063 -10.71041 -10.70981
 Alpha  occ. eigenvalues --  -10.70081 -10.70033 -10.69635 -10.69574  -1.16395
 Alpha  occ. eigenvalues --   -1.12307  -1.06863  -1.05784  -1.01166  -1.00196
 Alpha  occ. eigenvalues --   -0.95724  -0.91071  -0.86413  -0.85873  -0.83809
 Alpha  occ. eigenvalues --   -0.78392  -0.76016  -0.74386  -0.69575  -0.69287
 Alpha  occ. eigenvalues --   -0.68566  -0.68236  -0.68132  -0.64622  -0.64185
 Alpha  occ. eigenvalues --   -0.63150  -0.61963  -0.59944  -0.59561  -0.59133
 Alpha  occ. eigenvalues --   -0.56917  -0.55261  -0.54873  -0.52376  -0.46522
 Alpha  occ. eigenvalues --   -0.46052  -0.44430
 Alpha virt. eigenvalues --   -0.26075  -0.14757  -0.14119  -0.12869  -0.11178
 Alpha virt. eigenvalues --   -0.10082  -0.09218  -0.07998  -0.07942  -0.07471
 Alpha virt. eigenvalues --   -0.07211  -0.07150  -0.05645  -0.05582  -0.05348

 Mulliken charges:
               1
     1  C    0.081917
     2  C   -0.404623
     3  C   -0.441772
     4  C    0.026717
     5  C    0.028947
     6  C   -0.440100
     7  C   -0.397338
     8  C    0.086158
     9  C   -0.313052
    10  C    0.093374
    11  C   -0.639685
    12  C    0.671565
    13  C   -0.632605
    14  C    0.664592
    15  H    0.236857
    16  H    0.256538
    17  H    0.245882
    18  H    0.222449
    19  H    0.189297
    20  H    0.222489
    21  H    0.246618
    22  H    0.256792
    23  H    0.236782
    24  H    0.249337
    25  H    0.252864
 Sum of Mulliken charges =   1.00000

 Dipole moment (field-independent basis, Debye):
    X=              0.0121    Y=              0.1901    Z=             -0.0000  Tot=              0.1905
 Quadrupole moment (field-independent basis, Debye-Ang):
   XX=            -30.9855   YY=            -56.2610   ZZ=            -84.1903
   XY=              0.0068   XZ=              0.0111   YZ=              0.0706

 Normal termination of Gaussian 16 at Thu Jul 28 16:20:47 2022.
