 Gaussian 16, Revision C.01,
 Gaussian 16:  ES64L-G16RevC.01  3-Jul-2019

 ---------------------------------------------------------------
 #n M062X/6-311++G(d,p) TD(NStates=1) EmpiricalDispersion=GD3 SP
 ---------------------------------------------------------------

 -----
 SP_75
 -----
 Symbolic Z-matrix:
 Charge =  1 Multiplicity = 1

                         Standard orientation:
 ---------------------------------------------------------------------
 Center     Atomic      Atomic             Coordinates (Angstroms)
 Number     Number       Type             X           Y           Z
 ---------------------------------------------------------------------
      1          6           0        2.492199   -1.360169   -0.001279
      2          6           0        3.699379   -0.671606    0.002461
      3          6           0        3.679437    0.714213    0.002961
      4          6           0        2.460485    1.407801   -0.000310
      5          6           0       -2.461277    1.407285   -0.001525
      6          6           0       -3.682085    0.713439    0.002269
      7          6           0       -3.700112   -0.672386    0.002632
      8          6           0       -2.493412   -1.360701    0.001986
      9          6           0        0.005654   -1.453370   -0.001023
     10          6           0       -0.000398    1.429199   -0.003070
     11          6           0        1.264103   -0.676928   -0.002300
     12          6           0        1.237471    0.730937   -0.000129
     13          6           0       -1.263832   -0.677194   -0.002678
     14          6           0       -1.236871    0.730679   -0.001866
     15          1           0        2.487630   -2.443377   -0.006399
     16          1           0        4.634506   -1.211206    0.001360
     17          1           0        4.607679    1.272831    0.002959
     18          1           0        2.464889    2.490315    0.004634
     19          1           0       -0.000387    2.510272   -0.000231
     20          1           0       -2.465785    2.489800    0.002416
     21          1           0       -4.611069    1.271864    0.000964
     22          1           0       -4.636125   -1.212184    0.001473
     23          1           0       -2.488738   -2.443910   -0.002382
     24          1           0        0.001219   -2.146304    0.862798
     25          1           0        0.001731   -2.145294   -0.856374
 ---------------------------------------------------------------------

 SCF Done:  E(RM062X) =  -539.760242670     A.U. after   15 cycles

 Excitation energies and oscillator strengths:

 Excited State   1:      Singlet-A      2.8267 eV  438.63 nm  f=0.0289  <S**2>=0.000
      47 -> 48         0.70426
 This state for optimization and/or second-order correction.
 Total Energy, E(TD-HF/TD-DFT) =  -539.656365145
 Copying the excited state density for this state as the 1-particle RhoCI density.

 The electronic state is 1-A.
 Alpha  occ. eigenvalues --  -10.77667 -10.73267 -10.73198 -10.72417 -10.72413
 Alpha  occ. eigenvalues --  -10.71361 -10.71324 -10.70995 -10.70983 -10.70979
 Alpha  occ. eigenvalues --  -10.69958 -10.69931 -10.69655 -10.69621  -1.16460
 Alpha  occ. eigenvalues --   -1.12518  -1.06973  -1.05715  -1.01365  -1.00177
 Alpha  occ. eigenvalues --   -0.95802  -0.91051  -0.86422  -0.85911  -0.83818
 Alpha  occ. eigenvalues --   -0.78404  -0.76031  -0.74428  -0.69560  -0.69236
 Alpha  occ. eigenvalues --   -0.68496  -0.68176  -0.68078  -0.64778  -0.64318
 Alpha  occ. eigenvalues --   -0.63036  -0.61831  -0.60021  -0.59717  -0.59079
 Alpha  occ. eigenvalues --   -0.56891  -0.55204  -0.54817  -0.52458  -0.46663
 Alpha  occ. eigenvalues --   -0.46054  -0.44524
 Alpha virt. eigenvalues --   -0.26093  -0.14642  -0.14091  -0.12743  -0.11179
 Alpha virt. eigenvalues --   -0.10088  -0.09234  -0.07991  -0.07967  -0.07477
 Alpha virt. eigenvalues --   -0.07204  -0.07141  -0.05642  -0.05581  -0.05327

 Mulliken charges:
               1
     1  C    0.093374
     2  C   -0.410589
     3  C   -0.440701
     4  C    0.015812
     5  C    0.016396
     6  C   -0.440182
     7  C   -0.407312
     8  C    0.095713
     9  C   -0.336158
    10  C    0.095013
    11  C   -0.635135
    12  C    0.681942
    13  C   -0.627403
    14  C    0.679352
    15  H    0.237316
    16  H    0.256086
    17  H    0.249563
    18  H    0.221754
    19  H    0.190634
    20  H    0.221823
    21  H    0.249914
    22  H    0.256310
    23  H    0.237148
    24  H    0.250465
    25  H    0.248866
 Sum of Mulliken charges =   1.00000

 Dipole moment (field-independent basis, Debye):
    X=             -0.0065    Y=              0.1865    Z=              0.0003  Tot=              0.1866
 Quadrupole moment (field-independent basis, Debye-Ang):
   XX=            -31.1595   YY=            -56.2629   ZZ=            -84.1257
   XY=             -0.0036   XZ=              0.0061   YZ=              0.0249

 Normal termination of Gaussian 16 at Thu Jul 28 16:14:05 2022.
