 Gaussian 16, Revision C.01,
 Gaussian 16:  ES64L-G16RevC.01  3-Jul-2019

 ---------------------------------------------------------------
 #n M062X/6-311++G(d,p) TD(NStates=1) EmpiricalDispersion=GD3 SP
 ---------------------------------------------------------------

 -------
 SP_-150
 -------
 Symbolic Z-matrix:
 Charge =  1 Multiplicity = 1

                         Standard orientation:
 ---------------------------------------------------------------------
 Center     Atomic      Atomic             Coordinates (Angstroms)
 Number     Number       Type             X           Y           Z
 ---------------------------------------------------------------------
      1          6           0       -2.494111   -1.361063   -0.003885
      2          6           0       -3.702386   -0.672926   -0.000194
      3          6           0       -3.687039    0.712897    0.000800
      4          6           0       -2.464109    1.406914    0.001405
      5          6           0        2.462202    1.408161   -0.001513
      6          6           0        3.680684    0.714762   -0.000861
      7          6           0        3.700632   -0.671052    0.000220
      8          6           0        2.491206   -1.359800    0.003955
      9          6           0        0.013571   -1.453366    0.000178
     10          6           0       -0.000959    1.429189   -0.000055
     11          6           0       -1.261730   -0.677384    0.000463
     12          6           0       -1.236752    0.730491    0.002050
     13          6           0        1.262380   -0.676745   -0.000439
     14          6           0        1.238188    0.731117   -0.002117
     15          1           0       -2.489403   -2.444278   -0.004753
     16          1           0       -4.638694   -1.212864   -0.000108
     17          1           0       -4.613330    1.271181    0.002344
     18          1           0       -2.468626    2.489434    0.002573
     19          1           0       -0.000932    2.510266   -0.000090
     20          1           0        2.466471    2.490683   -0.002751
     21          1           0        4.605192    1.273515   -0.002439
     22          1           0        4.634814   -1.210516    0.000170
     23          1           0        2.486747   -2.443017    0.004894
     24          1           0        0.002933   -2.149114   -0.859528
     25          1           0        0.004159   -2.142458    0.859642
 ---------------------------------------------------------------------

 SCF Done:  E(RM062X) =  -539.760032589     A.U. after   15 cycles

 Excitation energies and oscillator strengths:

 Excited State   1:      Singlet-A      2.8227 eV  439.24 nm  f=0.0287  <S**2>=0.000
      47 -> 48         0.70425
 This state for optimization and/or second-order correction.
 Total Energy, E(TD-HF/TD-DFT) =  -539.656299987
 Copying the excited state density for this state as the 1-particle RhoCI density.

 The electronic state is 1-A.
 Alpha  occ. eigenvalues --  -10.77665 -10.73323 -10.73156 -10.72440 -10.72431
 Alpha  occ. eigenvalues --  -10.71413 -10.71324 -10.71019 -10.70990 -10.70980
 Alpha  occ. eigenvalues --  -10.70004 -10.69940 -10.69670 -10.69589  -1.16444
 Alpha  occ. eigenvalues --   -1.12466  -1.06945  -1.05737  -1.01313  -1.00182
 Alpha  occ. eigenvalues --   -0.95782  -0.91056  -0.86421  -0.85899  -0.83816
 Alpha  occ. eigenvalues --   -0.78399  -0.76029  -0.74418  -0.69565  -0.69245
 Alpha  occ. eigenvalues --   -0.68504  -0.68194  -0.68103  -0.64739  -0.64286
 Alpha  occ. eigenvalues --   -0.63074  -0.61856  -0.60005  -0.59677  -0.59093
 Alpha  occ. eigenvalues --   -0.56896  -0.55231  -0.54815  -0.52438  -0.46625
 Alpha  occ. eigenvalues --   -0.46056  -0.44501
 Alpha virt. eigenvalues --   -0.26088  -0.14670  -0.14099  -0.12774  -0.11179
 Alpha virt. eigenvalues --   -0.10086  -0.09230  -0.07983  -0.07970  -0.07476
 Alpha virt. eigenvalues --   -0.07204  -0.07146  -0.05643  -0.05581  -0.05332

 Mulliken charges:
               1
     1  C    0.095732
     2  C   -0.402315
     3  C   -0.439254
     4  C    0.015171
     5  C    0.013263
     6  C   -0.440679
     7  C   -0.410582
     8  C    0.090233
     9  C   -0.334606
    10  C    0.092722
    11  C   -0.627617
    12  C    0.682773
    13  C   -0.644208
    14  C    0.689834
    15  H    0.237108
    16  H    0.256555
    17  H    0.249324
    18  H    0.222075
    19  H    0.190426
    20  H    0.221938
    21  H    0.248446
    22  H    0.256065
    23  H    0.237440
    24  H    0.249727
    25  H    0.250429
 Sum of Mulliken charges =   1.00000

 Dipole moment (field-independent basis, Debye):
    X=             -0.0158    Y=              0.1874    Z=              0.0008  Tot=              0.1881
 Quadrupole moment (field-independent basis, Debye-Ang):
   XX=            -31.1162   YY=            -56.2624   ZZ=            -84.1418
   XY=             -0.0088   XZ=             -0.0147   YZ=              0.0022

 Normal termination of Gaussian 16 at Thu Jul 28 12:51:55 2022.
