 Gaussian 16, Revision C.01,
 Gaussian 16:  ES64L-G16RevC.01  3-Jul-2019

 ---------------------------------------------------------------
 #n M062X/6-311++G(d,p) TD(NStates=1) EmpiricalDispersion=GD3 SP
 ---------------------------------------------------------------

 -------
 SP_-125
 -------
 Symbolic Z-matrix:
 Charge =  1 Multiplicity = 1

                         Standard orientation:
 ---------------------------------------------------------------------
 Center     Atomic      Atomic             Coordinates (Angstroms)
 Number     Number       Type             X           Y           Z
 ---------------------------------------------------------------------
      1          6           0        1.360835    0.003392    2.491155
      2          6           0        0.672711    0.025412    3.719133
      3          6           0       -0.713424    0.026284    3.714861
      4          6           0       -1.408076   -0.008941    2.485906
      5          6           0       -1.408076   -0.008941   -2.485906
      6          6           0       -0.713424    0.026284   -3.714861
      7          6           0        0.672711    0.025412   -3.719133
      8          6           0        1.360835    0.003392   -2.491155
      9          6           0        1.453478   -0.011025   -0.000000
     10          6           0       -1.430205   -0.030459    0.000000
     11          6           0        0.676680   -0.024937    1.242930
     12          6           0       -0.731197   -0.009833    1.240471
     13          6           0        0.676680   -0.024937   -1.242930
     14          6           0       -0.731197   -0.009833   -1.240471
     15          1           0        2.443266   -0.044185    2.486946
     16          1           0        1.212291    0.014038    4.651128
     17          1           0       -1.272221    0.019827    4.608137
     18          1           0       -2.489878    0.035621    2.489675
     19          1           0       -2.510916   -0.001925    0.000000
     20          1           0       -2.489878    0.035621   -2.489675
     21          1           0       -1.272221    0.019827   -4.608137
     22          1           0        1.212291    0.014038   -4.651128
     23          1           0        2.443266   -0.044185   -2.486946
     24          1           0        2.128095   -0.827525   -0.000000
     25          1           0        2.165920    0.891229   -0.000000
 ---------------------------------------------------------------------

 SCF Done:  E(RM062X) =  -539.752294478     A.U. after   15 cycles

 Excitation energies and oscillator strengths:

 Excited State   1:      Singlet-A'     2.7718 eV  447.30 nm  f=0.0267  <S**2>=0.000
      47 -> 48         0.70427
 This state for optimization and/or second-order correction.
 Total Energy, E(TD-HF/TD-DFT) =  -539.650431960
 Copying the excited state density for this state as the 1-particle RhoCI density.

 The electronic state is 1-A'.
 Alpha  occ. eigenvalues --  -10.77653 -10.73331 -10.73331 -10.72655 -10.72654
 Alpha  occ. eigenvalues --  -10.71634 -10.71634 -10.71165 -10.71165 -10.70978
 Alpha  occ. eigenvalues --  -10.70262 -10.70262 -10.69558 -10.69558  -1.16291
 Alpha  occ. eigenvalues --   -1.11932  -1.06694  -1.05879  -1.00897  -1.00142
 Alpha  occ. eigenvalues --   -0.95592  -0.91095  -0.86404  -0.85817  -0.83788
 Alpha  occ. eigenvalues --   -0.78397  -0.75968  -0.74310  -0.69634  -0.69472
 Alpha  occ. eigenvalues --   -0.68826  -0.68281  -0.68046  -0.64364  -0.63955
 Alpha  occ. eigenvalues --   -0.63246  -0.62187  -0.59767  -0.59277  -0.59208
 Alpha  occ. eigenvalues --   -0.56983  -0.55324  -0.54954  -0.52235  -0.46378
 Alpha  occ. eigenvalues --   -0.45938  -0.44248
 Alpha virt. eigenvalues --   -0.26058  -0.15006  -0.14177  -0.13113  -0.11178
 Alpha virt. eigenvalues --   -0.10077  -0.09192  -0.08057  -0.07869  -0.07457
 Alpha virt. eigenvalues --   -0.07262  -0.07127  -0.05651  -0.05585  -0.05389

 Mulliken charges:
               1
     1  C    0.043022
     2  C   -0.379042
     3  C   -0.441996
     4  C    0.096196
     5  C    0.096196
     6  C   -0.441996
     7  C   -0.379042
     8  C    0.043022
     9  C   -0.261721
    10  C    0.075620
    11  C   -0.570640
    12  C    0.546470
    13  C   -0.570640
    14  C    0.546470
    15  H    0.234389
    16  H    0.257416
    17  H    0.239767
    18  H    0.222137
    19  H    0.185109
    20  H    0.222137
    21  H    0.239767
    22  H    0.257416
    23  H    0.234389
    24  H    0.245790
    25  H    0.259766
 Sum of Mulliken charges =   1.00000

 Dipole moment (field-independent basis, Debye):
    X=             -0.1930    Y=              0.0049    Z=              0.0000  Tot=              0.1931
 Quadrupole moment (field-independent basis, Debye-Ang):
   XX=            -56.2540   YY=            -84.3033   ZZ=            -30.6860
   XY=             -0.2400   XZ=             -0.0000   YZ=              0.0000

 Normal termination of Gaussian 16 at Thu Jul 28 13:30:49 2022.
