 Gaussian 16, Revision C.01,
 Gaussian 16:  ES64L-G16RevC.01  3-Jul-2019

 ---------------------------------------------------------------
 #n M062X/6-311++G(d,p) TD(NStates=1) EmpiricalDispersion=GD3 SP
 ---------------------------------------------------------------

 ------
 SP_-50
 ------
 Symbolic Z-matrix:
 Charge =  1 Multiplicity = 1

                         Standard orientation:
 ---------------------------------------------------------------------
 Center     Atomic      Atomic             Coordinates (Angstroms)
 Number     Number       Type             X           Y           Z
 ---------------------------------------------------------------------
      1          6           0       -2.492868   -1.360591   -0.000632
      2          6           0       -3.703489   -0.672231    0.002493
      3          6           0       -3.687755    0.713592    0.002828
      4          6           0       -2.465670    1.407386   -0.000544
      5          6           0        2.465192    1.407700   -0.001273
      6          6           0        3.686167    0.714060    0.002413
      7          6           0        3.703052   -0.671762    0.002597
      8          6           0        2.492143   -1.360279    0.001329
      9          6           0        0.003393   -1.453370   -0.001056
     10          6           0       -0.000241    1.429199   -0.003061
     11          6           0       -1.260062   -0.677141   -0.002379
     12          6           0       -1.237592    0.730728   -0.000471
     13          6           0        1.260223   -0.676981   -0.002603
     14          6           0        1.237950    0.730887   -0.001513
     15          1           0       -2.488291   -2.443798   -0.005607
     16          1           0       -4.638675   -1.211989    0.001377
     17          1           0       -4.610167    1.272054    0.002567
     18          1           0       -2.470032    2.489899    0.004205
     19          1           0       -0.000234    2.510272   -0.000216
     20          1           0        2.469493    2.490215    0.002874
     21          1           0        4.608132    1.272641    0.001373
     22          1           0        4.637706   -1.211401    0.001448
     23          1           0        2.487627   -2.443488   -0.003195
     24          1           0        0.000735   -2.144740   -0.856383
     25          1           0        0.001041   -2.146858    0.862787
 ---------------------------------------------------------------------

 SCF Done:  E(RM062X) =  -539.760055245     A.U. after   15 cycles

 Excitation energies and oscillator strengths:

 Excited State   1:      Singlet-A      2.8187 eV  439.86 nm  f=0.0285  <S**2>=0.000
      47 -> 48         0.70426
 This state for optimization and/or second-order correction.
 Total Energy, E(TD-HF/TD-DFT) =  -539.656468238
 Copying the excited state density for this state as the 1-particle RhoCI density.

 The electronic state is 1-A.
 Alpha  occ. eigenvalues --  -10.77663 -10.73269 -10.73228 -10.72458 -10.72455
 Alpha  occ. eigenvalues --  -10.71406 -10.71384 -10.71024 -10.71017 -10.70980
 Alpha  occ. eigenvalues --  -10.70008 -10.69992 -10.69631 -10.69611  -1.16426
 Alpha  occ. eigenvalues --   -1.12413  -1.06917  -1.05748  -1.01263  -1.00191
 Alpha  occ. eigenvalues --   -0.95762  -0.91061  -0.86416  -0.85893  -0.83814
 Alpha  occ. eigenvalues --   -0.78396  -0.76024  -0.74408  -0.69563  -0.69257
 Alpha  occ. eigenvalues --   -0.68518  -0.68209  -0.68121  -0.64700  -0.64251
 Alpha  occ. eigenvalues --   -0.63095  -0.61900  -0.59984  -0.59640  -0.59106
 Alpha  occ. eigenvalues --   -0.56903  -0.55228  -0.54855  -0.52417  -0.46589
 Alpha  occ. eigenvalues --   -0.46057  -0.44478
 Alpha virt. eigenvalues --   -0.26083  -0.14697  -0.14105  -0.12805  -0.11178
 Alpha virt. eigenvalues --   -0.10085  -0.09226  -0.07984  -0.07965  -0.07474
 Alpha virt. eigenvalues --   -0.07205  -0.07148  -0.05644  -0.05582  -0.05337

 Mulliken charges:
               1
     1  C    0.091736
     2  C   -0.403612
     3  C   -0.439895
     4  C    0.016671
     5  C    0.016092
     6  C   -0.440312
     7  C   -0.405797
     8  C    0.090339
     9  C   -0.329356
    10  C    0.092542
    11  C   -0.637223
    12  C    0.684481
    13  C   -0.640814
    14  C    0.686445
    15  H    0.237195
    16  H    0.256473
    17  H    0.248137
    18  H    0.222214
    19  H    0.190097
    20  H    0.222187
    21  H    0.247909
    22  H    0.256363
    23  H    0.237258
    24  H    0.249684
    25  H    0.251186
 Sum of Mulliken charges =   1.00000

 Dipole moment (field-independent basis, Debye):
    X=             -0.0040    Y=              0.1885    Z=              0.0003  Tot=              0.1886
 Quadrupole moment (field-independent basis, Debye-Ang):
   XX=            -31.0726   YY=            -56.2623   ZZ=            -84.1580
   XY=             -0.0022   XZ=             -0.0037   YZ=              0.0246

 Normal termination of Gaussian 16 at Thu Jul 28 14:24:42 2022.
