 Gaussian 16, Revision C.01,
 Gaussian 16:  ES64L-G16RevC.01  3-Jul-2019

 ---------------------------------------------------------------
 #n M062X/6-311++G(d,p) TD(NStates=1) EmpiricalDispersion=GD3 SP
 ---------------------------------------------------------------

 ----
 SP_0
 ----
 Symbolic Z-matrix:
 Charge =  1 Multiplicity = 1

                         Standard orientation:
 ---------------------------------------------------------------------
 Center     Atomic      Atomic             Coordinates (Angstroms)
 Number     Number       Type             X           Y           Z
 ---------------------------------------------------------------------
      1          6           0        2.494290   -1.360917    0.003975
      2          6           0        3.691381   -0.672716    0.015344
      3          6           0        3.666852    0.713227    0.015370
      4          6           0        2.449973    1.407432   -0.006072
      5          6           0       -2.449039    1.408031   -0.004612
      6          6           0       -3.663670    0.714140    0.016204
      7          6           0       -3.690486   -0.671782    0.015147
      8          6           0       -2.492822   -1.360236    0.000068
      9          6           0       -0.006780   -1.453407   -0.006703
     10          6           0        0.000465    1.429555   -0.018255
     11          6           0        1.273366   -0.677084   -0.015202
     12          6           0        1.235306    0.730804   -0.006930
     13          6           0       -1.273694   -0.676769   -0.014736
     14          6           0       -1.236036    0.731088   -0.004842
     15          1           0        2.489414   -2.443855   -0.024138
     16          1           0        4.629108   -1.212491    0.008474
     17          1           0        4.611969    1.271737    0.010712
     18          1           0        2.454808    2.489702    0.020082
     19          1           0        0.000453    2.510500   -0.001117
     20          1           0       -2.453741    2.490285    0.022746
     21          1           0       -4.607905    1.272868    0.013126
     22          1           0       -4.627149   -1.211322    0.008350
     23          1           0       -2.488080   -2.443164   -0.028949
     24          1           0       -0.001448   -2.159237    0.878579
     25          1           0       -0.002062   -2.133216   -0.840397
 ---------------------------------------------------------------------

 SCF Done:  E(RM062X) =  -539.758258022     A.U. after   15 cycles

 Excitation energies and oscillator strengths:

 Excited State   1:      Singlet-A      2.8422 eV  436.22 nm  f=0.0298  <S**2>=0.000
      47 -> 48         0.70423
 This state for optimization and/or second-order correction.
 Total Energy, E(TD-HF/TD-DFT) =  -539.653808433
 Copying the excited state density for this state as the 1-particle RhoCI density.

 The electronic state is 1-A.
 Alpha  occ. eigenvalues --  -10.77681 -10.73240 -10.73156 -10.72318 -10.72313
 Alpha  occ. eigenvalues --  -10.71236 -10.71192 -10.70971 -10.70920 -10.70907
 Alpha  occ. eigenvalues --  -10.69827 -10.69794 -10.69707 -10.69667  -1.16548
 Alpha  occ. eigenvalues --   -1.12780  -1.07119  -1.05626  -1.01638  -1.00121
 Alpha  occ. eigenvalues --   -0.95902  -0.91023  -0.86441  -0.85959  -0.83828
 Alpha  occ. eigenvalues --   -0.78435  -0.76040  -0.74480  -0.69566  -0.69226
 Alpha  occ. eigenvalues --   -0.68513  -0.68071  -0.67888  -0.64976  -0.64488
 Alpha  occ. eigenvalues --   -0.62848  -0.61656  -0.60086  -0.59904  -0.59002
 Alpha  occ. eigenvalues --   -0.56868  -0.55136  -0.54708  -0.52562  -0.46865
 Alpha  occ. eigenvalues --   -0.46022  -0.44627
 Alpha virt. eigenvalues --   -0.26125  -0.14529  -0.14062  -0.12599  -0.11183
 Alpha virt. eigenvalues --   -0.10098  -0.09253  -0.08053  -0.07940  -0.07485
 Alpha virt. eigenvalues --   -0.07219  -0.07112  -0.05638  -0.05581  -0.05307

 Mulliken charges:
               1
     1  C    0.091035
     2  C   -0.414901
     3  C   -0.441665
     4  C    0.050814
     5  C    0.052565
     6  C   -0.441956
     7  C   -0.418049
     8  C    0.089377
     9  C   -0.339355
    10  C    0.098667
    11  C   -0.568422
    12  C    0.602663
    13  C   -0.580244
    14  C    0.602696
    15  H    0.235893
    16  H    0.255877
    17  H    0.253846
    18  H    0.220326
    19  H    0.190644
    20  H    0.220193
    21  H    0.253532
    22  H    0.255473
    23  H    0.236305
    24  H    0.250888
    25  H    0.243799
 Sum of Mulliken charges =   1.00000

 Dipole moment (field-independent basis, Debye):
    X=              0.0076    Y=              0.1802    Z=             -0.0014  Tot=              0.1804
 Quadrupole moment (field-independent basis, Debye-Ang):
   XX=            -31.3765   YY=            -56.2622   ZZ=            -84.0453
   XY=              0.0042   XZ=             -0.0073   YZ=              0.1429

 Normal termination of Gaussian 16 at Thu Jul 28 14:58:19 2022.
