 Gaussian 16, Revision C.01,
 Gaussian 16:  ES64L-G16RevC.01  3-Jul-2019

 ---------------------------------------------------------------
 #n M062X/6-311++G(d,p) TD(NStates=1) EmpiricalDispersion=GD3 SP
 ---------------------------------------------------------------

 ------
 SP_125
 ------
 Symbolic Z-matrix:
 Charge =  1 Multiplicity = 1

                         Standard orientation:
 ---------------------------------------------------------------------
 Center     Atomic      Atomic             Coordinates (Angstroms)
 Number     Number       Type             X           Y           Z
 ---------------------------------------------------------------------
      1          6           0        2.492254   -1.360085   -0.001244
      2          6           0        3.695704   -0.671508    0.007515
      3          6           0        3.672706    0.714332    0.008352
      4          6           0        2.455780    1.407943   -0.001865
      5          6           0       -2.456881    1.407230   -0.003568
      6          6           0       -3.676416    0.713255    0.007381
      7          6           0       -3.696737   -0.672600    0.007751
      8          6           0       -2.493958   -1.360850    0.003322
      9          6           0        0.007913   -1.453378   -0.003194
     10          6           0       -0.000551    1.429280   -0.009174
     11          6           0        1.267983   -0.676845   -0.007208
     12          6           0        1.236993    0.731014   -0.001754
     13          6           0       -1.267602   -0.677216   -0.007742
     14          6           0       -1.236148    0.730665   -0.004187
     15          1           0        2.487633   -2.443228   -0.016026
     16          1           0        4.631304   -1.211060    0.004154
     17          1           0        4.607227    1.273008    0.007319
     18          1           0        2.460287    2.490395    0.012187
     19          1           0       -0.000536    2.510324   -0.000633
     20          1           0       -2.461537    2.489690    0.009080
     21          1           0       -4.611971    1.271667    0.004516
     22          1           0       -4.633578   -1.212427    0.004307
     23          1           0       -2.489186   -2.443998   -0.010406
     24          1           0        0.001700   -2.149629    0.869175
     25          1           0        0.002417   -2.142163   -0.849983
 ---------------------------------------------------------------------

 SCF Done:  E(RM062X) =  -539.759897128     A.U. after   15 cycles

 Excitation energies and oscillator strengths:

 Excited State   1:      Singlet-A      2.8336 eV  437.55 nm  f=0.0293  <S**2>=0.000
      47 -> 48         0.70425
 This state for optimization and/or second-order correction.
 Total Energy, E(TD-HF/TD-DFT) =  -539.655763986
 Copying the excited state density for this state as the 1-particle RhoCI density.

 The electronic state is 1-A.
 Alpha  occ. eigenvalues --  -10.77672 -10.73267 -10.73169 -10.72377 -10.72372
 Alpha  occ. eigenvalues --  -10.71317 -10.71265 -10.70977 -10.70967 -10.70950
 Alpha  occ. eigenvalues --  -10.69909 -10.69871 -10.69681 -10.69633  -1.16494
 Alpha  occ. eigenvalues --   -1.12623  -1.07030  -1.05680  -1.01472  -1.00158
 Alpha  occ. eigenvalues --   -0.95841  -0.91040  -0.86429  -0.85929  -0.83823
 Alpha  occ. eigenvalues --   -0.78414  -0.76036  -0.74449  -0.69559  -0.69226
 Alpha  occ. eigenvalues --   -0.68493  -0.68138  -0.68015  -0.64857  -0.64386
 Alpha  occ. eigenvalues --   -0.62968  -0.61759  -0.60053  -0.59793  -0.59049
 Alpha  occ. eigenvalues --   -0.56881  -0.55181  -0.54773  -0.52500  -0.46741
 Alpha  occ. eigenvalues --   -0.46044  -0.44567
 Alpha virt. eigenvalues --   -0.26104  -0.14593  -0.14079  -0.12683  -0.11181
 Alpha virt. eigenvalues --   -0.10091  -0.09242  -0.08015  -0.07956  -0.07481
 Alpha virt. eigenvalues --   -0.07209  -0.07130  -0.05641  -0.05581  -0.05318

 Mulliken charges:
               1
     1  C    0.093289
     2  C   -0.415270
     3  C   -0.441841
     4  C    0.026777
     5  C    0.026690
     6  C   -0.441270
     7  C   -0.411110
     8  C    0.096287
     9  C   -0.336093
    10  C    0.099435
    11  C   -0.619992
    12  C    0.656628
    13  C   -0.607407
    14  C    0.654314
    15  H    0.237037
    16  H    0.255810
    17  H    0.251163
    18  H    0.221197
    19  H    0.190860
    20  H    0.221323
    21  H    0.251608
    22  H    0.256185
    23  H    0.236711
    24  H    0.250962
    25  H    0.246708
 Sum of Mulliken charges =   1.00000

 Dipole moment (field-independent basis, Debye):
    X=             -0.0090    Y=              0.1842    Z=              0.0003  Tot=              0.1844
 Quadrupole moment (field-independent basis, Debye-Ang):
   XX=            -31.2465   YY=            -56.2631   ZZ=            -84.0935
   XY=             -0.0050   XZ=              0.0086   YZ=              0.0733

 Normal termination of Gaussian 16 at Thu Jul 28 16:56:36 2022.
