 Gaussian 16, Revision C.01,
 Gaussian 16:  ES64L-G16RevC.01  3-Jul-2019

 ---------------------------------------------------------------
 #n M062X/6-311++G(d,p) TD(NStates=1) EmpiricalDispersion=GD3 SP
 ---------------------------------------------------------------

 -----
 SP_50
 -----
 Symbolic Z-matrix:
 Charge =  1 Multiplicity = 1

                         Standard orientation:
 ---------------------------------------------------------------------
 Center     Atomic      Atomic             Coordinates (Angstroms)
 Number     Number       Type             X           Y           Z
 ---------------------------------------------------------------------
      1          6           0       -2.491095   -1.360097    0.003958
      2          6           0       -3.707982   -0.671479    0.010303
      3          6           0       -3.694144    0.714395    0.009985
      4          6           0       -2.471612    1.408051   -0.004516
      5          6           0        2.472899    1.407197   -0.002573
      6          6           0        3.698378    0.713134    0.011088
      7          6           0        3.709135   -0.672731    0.010019
      8          6           0        2.493018   -1.360895   -0.001280
      9          6           0       -0.009052   -1.453384   -0.004536
     10          6           0        0.000652    1.429352   -0.012153
     11          6           0       -1.254620   -0.676788   -0.010278
     12          6           0       -1.239144    0.731089   -0.005302
     13          6           0        1.254190   -0.677218   -0.009689
     14          6           0        1.238197    0.730645   -0.002528
     15          1           0       -2.486740   -2.443193   -0.014495
     16          1           0       -4.641218   -1.211001    0.005701
     17          1           0       -4.606097    1.273122    0.006379
     18          1           0       -2.475676    2.490464    0.012530
     19          1           0        0.000634    2.510370   -0.000717
     20          1           0        2.477122    2.489595    0.016078
     21          1           0        4.611526    1.271534    0.009548
     22          1           0        4.643789   -1.212571    0.005501
     23          1           0        2.488505   -2.443979   -0.020937
     24          1           0       -0.001971   -2.136200   -0.846823
     25          1           0       -0.002789   -2.155764    0.872241
 ---------------------------------------------------------------------

 SCF Done:  E(RM062X) =  -539.758565052     A.U. after   15 cycles

 Excitation energies and oscillator strengths:

 Excited State   1:      Singlet-A      2.8050 eV  442.00 nm  f=0.0279  <S**2>=0.000
      47 -> 48         0.70427
 This state for optimization and/or second-order correction.
 Total Energy, E(TD-HF/TD-DFT) =  -539.655481445
 Copying the excited state density for this state as the 1-particle RhoCI density.

 The electronic state is 1-A.
 Alpha  occ. eigenvalues --  -10.77658 -10.73328 -10.73218 -10.72523 -10.72518
 Alpha  occ. eigenvalues --  -10.71503 -10.71444 -10.71077 -10.71058 -10.70981
 Alpha  occ. eigenvalues --  -10.70106 -10.70064 -10.69624 -10.69570  -1.16379
 Alpha  occ. eigenvalues --   -1.12253  -1.06837  -1.05800  -1.01120  -1.00196
 Alpha  occ. eigenvalues --   -0.95705  -0.91075  -0.86411  -0.85865  -0.83806
 Alpha  occ. eigenvalues --   -0.78390  -0.76010  -0.74376  -0.69580  -0.69306
 Alpha  occ. eigenvalues --   -0.68596  -0.68246  -0.68130  -0.64583  -0.64152
 Alpha  occ. eigenvalues --   -0.63171  -0.61997  -0.59921  -0.59521  -0.59145
 Alpha  occ. eigenvalues --   -0.56924  -0.55270  -0.54890  -0.52356  -0.46492
 Alpha  occ. eigenvalues --   -0.46046  -0.44406
 Alpha virt. eigenvalues --   -0.26071  -0.14789  -0.14127  -0.12902  -0.11177
 Alpha virt. eigenvalues --   -0.10081  -0.09214  -0.08005  -0.07931  -0.07469
 Alpha virt. eigenvalues --   -0.07216  -0.07148  -0.05646  -0.05582  -0.05353

 Mulliken charges:
               1
     1  C    0.077501
     2  C   -0.402471
     3  C   -0.442477
     4  C    0.035995
     5  C    0.038222
     6  C   -0.440781
     7  C   -0.395647
     8  C    0.081247
     9  C   -0.302820
    10  C    0.094146
    11  C   -0.633392
    12  C    0.655983
    13  C   -0.628818
    14  C    0.649304
    15  H    0.236514
    16  H    0.256695
    17  H    0.245007
    18  H    0.222549
    19  H    0.188794
    20  H    0.222568
    21  H    0.245683
    22  H    0.256889
    23  H    0.236500
    24  H    0.248918
    25  H    0.253889
 Sum of Mulliken charges =   1.00000

 Dipole moment (field-independent basis, Debye):
    X=              0.0108    Y=              0.1909    Z=              0.0004  Tot=              0.1912
 Quadrupole moment (field-independent basis, Debye-Ang):
   XX=            -30.9420   YY=            -56.2604   ZZ=            -84.2065
   XY=              0.0061   XZ=              0.0098   YZ=              0.0949

 Normal termination of Gaussian 16 at Thu Jul 28 15:59:43 2022.
