 Gaussian 16, Revision C.01,
 Gaussian 16:  ES64L-G16RevC.01  3-Jul-2019

 ---------------------------------------------------------------
 #n M062X/6-311++G(d,p) TD(NStates=1) EmpiricalDispersion=GD3 SP
 ---------------------------------------------------------------

 ------
 SP_125
 ------
 Symbolic Z-matrix:
 Charge =  1 Multiplicity = 1

                         Standard orientation:
 ---------------------------------------------------------------------
 Center     Atomic      Atomic             Coordinates (Angstroms)
 Number     Number       Type             X           Y           Z
 ---------------------------------------------------------------------
      1          6           0        2.492795   -1.360252    0.000084
      2          6           0        3.692324   -0.671780    0.012632
      3          6           0        3.667036    0.714111    0.013477
      4          6           0        2.451390    1.407923   -0.003888
      5          6           0       -2.452172    1.407421   -0.005105
      6          6           0       -3.669686    0.713347    0.012782
      7          6           0       -3.693067   -0.672559    0.012797
      8          6           0       -2.494016   -1.360812    0.003342
      9          6           0        0.005651   -1.453396   -0.005431
     10          6           0       -0.000390    1.429443   -0.015258
     11          6           0        1.271754   -0.676837   -0.012272
     12          6           0        1.236274    0.731023   -0.004063
     13          6           0       -1.271481   -0.677101   -0.012657
     14          6           0       -1.235667    0.730782   -0.005802
     15          1           0        2.488079   -2.443268   -0.024068
     16          1           0        4.628751   -1.211352    0.006982
     17          1           0        4.608131    1.272791    0.010895
     18          1           0        2.456042    2.490260    0.018881
     19          1           0       -0.000379    2.510429   -0.001005
     20          1           0       -2.456932    2.489768    0.016662
     21          1           0       -4.611518    1.271843    0.008887
     22          1           0       -4.630381   -1.212327    0.007087
     23          1           0       -2.489190   -2.443836   -0.020058
     24          1           0        0.001209   -2.154161    0.875507
     25          1           0        0.001721   -2.138022   -0.843590
 ---------------------------------------------------------------------

 SCF Done:  E(RM062X) =  -539.759045167     A.U. after   15 cycles

 Excitation energies and oscillator strengths:

 Excited State   1:      Singlet-A      2.8396 eV  436.62 nm  f=0.0296  <S**2>=0.000
      47 -> 48         0.70424
 This state for optimization and/or second-order correction.
 Total Energy, E(TD-HF/TD-DFT) =  -539.654690601
 Copying the excited state density for this state as the 1-particle RhoCI density.

 The electronic state is 1-A.
 Alpha  occ. eigenvalues --  -10.77678 -10.73239 -10.73170 -10.72337 -10.72333
 Alpha  occ. eigenvalues --  -10.71258 -10.71221 -10.70974 -10.70934 -10.70923
 Alpha  occ. eigenvalues --  -10.69850 -10.69823 -10.69694 -10.69660  -1.16530
 Alpha  occ. eigenvalues --   -1.12728  -1.07089  -1.05643  -1.01582  -1.00135
 Alpha  occ. eigenvalues --   -0.95881  -0.91028  -0.86436  -0.85949  -0.83826
 Alpha  occ. eigenvalues --   -0.78427  -0.76039  -0.74470  -0.69560  -0.69224
 Alpha  occ. eigenvalues --   -0.68503  -0.68095  -0.67936  -0.64937  -0.64454
 Alpha  occ. eigenvalues --   -0.62889  -0.61691  -0.60077  -0.59868  -0.59018
 Alpha  occ. eigenvalues --   -0.56872  -0.55150  -0.54733  -0.52541  -0.46823
 Alpha  occ. eigenvalues --   -0.46030  -0.44608
 Alpha virt. eigenvalues --   -0.26117  -0.14548  -0.14068  -0.12626  -0.11182
 Alpha virt. eigenvalues --   -0.10095  -0.09249  -0.08040  -0.07946  -0.07484
 Alpha virt. eigenvalues --   -0.07216  -0.07117  -0.05639  -0.05581  -0.05310

 Mulliken charges:
               1
     1  C    0.091436
     2  C   -0.417233
     3  C   -0.442225
     4  C    0.043688
     5  C    0.042727
     6  C   -0.441917
     7  C   -0.414510
     8  C    0.093142
     9  C   -0.337097
    10  C    0.100404
    11  C   -0.593507
    12  C    0.620714
    13  C   -0.583805
    14  C    0.620158
    15  H    0.236510
    16  H    0.255633
    17  H    0.252804
    18  H    0.220575
    19  H    0.190775
    20  H    0.220681
    21  H    0.253085
    22  H    0.255946
    23  H    0.236206
    24  H    0.251187
    25  H    0.244623
 Sum of Mulliken charges =   1.00000

 Dipole moment (field-independent basis, Debye):
    X=             -0.0064    Y=              0.1816    Z=             -0.0003  Tot=              0.1817
 Quadrupole moment (field-independent basis, Debye-Ang):
   XX=            -31.3334   YY=            -56.2628   ZZ=            -84.0614
   XY=             -0.0035   XZ=              0.0061   YZ=              0.1208

 Normal termination of Gaussian 16 at Thu Jul 28 16:53:16 2022.
