 Gaussian 16, Revision C.01,
 Gaussian 16:  ES64L-G16RevC.01  3-Jul-2019

 ---------------------------------------------------------------
 #n M062X/6-311++G(d,p) TD(NStates=1) EmpiricalDispersion=GD3 SP
 ---------------------------------------------------------------

 ----
 SP_0
 ----
 Symbolic Z-matrix:
 Charge =  1 Multiplicity = 1

                         Standard orientation:
 ---------------------------------------------------------------------
 Center     Atomic      Atomic             Coordinates (Angstroms)
 Number     Number       Type             X           Y           Z
 ---------------------------------------------------------------------
      1          6           0        2.493470   -1.360631    0.001990
      2          6           0        3.696442   -0.672288    0.007674
      3          6           0        3.675356    0.713563    0.007686
      4          6           0        2.456567    1.407434   -0.003037
      5          6           0       -2.456095    1.407739   -0.002307
      6          6           0       -3.673766    0.714024    0.008102
      7          6           0       -3.695999   -0.671820    0.007573
      8          6           0       -2.492740   -1.360303    0.000033
      9          6           0       -0.003391   -1.453378   -0.003352
     10          6           0        0.000236    1.429281   -0.009129
     11          6           0        1.267711   -0.677110   -0.007599
     12          6           0        1.236390    0.730765   -0.003465
     13          6           0       -1.267874   -0.676951   -0.007370
     14          6           0       -1.236752    0.730914   -0.002422
     15          1           0        2.488742   -2.443778   -0.012067
     16          1           0        4.632928   -1.212036    0.004240
     17          1           0        4.610616    1.272050    0.005359
     18          1           0        2.461180    2.489892    0.010041
     19          1           0        0.000230    2.510324   -0.000560
     20          1           0       -2.460644    2.490194    0.011372
     21          1           0       -4.608583    1.272625    0.006560
     22          1           0       -4.631953   -1.211450    0.004174
     23          1           0       -2.488076   -2.443448   -0.014475
     24          1           0       -0.000729   -2.152402    0.869108
     25          1           0       -0.001036   -2.139392   -0.850014
 ---------------------------------------------------------------------

 SCF Done:  E(RM062X) =  -539.759892978     A.U. after   15 cycles

 Excitation energies and oscillator strengths:

 Excited State   1:      Singlet-A      2.8336 eV  437.55 nm  f=0.0293  <S**2>=0.000
      47 -> 48         0.70425
 This state for optimization and/or second-order correction.
 Total Energy, E(TD-HF/TD-DFT) =  -539.655759367
 Copying the excited state density for this state as the 1-particle RhoCI density.

 The electronic state is 1-A.
 Alpha  occ. eigenvalues --  -10.77672 -10.73239 -10.73197 -10.72376 -10.72373
 Alpha  occ. eigenvalues --  -10.71302 -10.71280 -10.70976 -10.70962 -10.70955
 Alpha  occ. eigenvalues --  -10.69898 -10.69882 -10.69667 -10.69647  -1.16494
 Alpha  occ. eigenvalues --   -1.12623  -1.07030  -1.05679  -1.01472  -1.00158
 Alpha  occ. eigenvalues --   -0.95841  -0.91040  -0.86428  -0.85930  -0.83822
 Alpha  occ. eigenvalues --   -0.78414  -0.76036  -0.74449  -0.69559  -0.69226
 Alpha  occ. eigenvalues --   -0.68496  -0.68138  -0.68011  -0.64857  -0.64386
 Alpha  occ. eigenvalues --   -0.62965  -0.61762  -0.60051  -0.59794  -0.59049
 Alpha  occ. eigenvalues --   -0.56881  -0.55176  -0.54780  -0.52500  -0.46741
 Alpha  occ. eigenvalues --   -0.46044  -0.44567
 Alpha virt. eigenvalues --   -0.26105  -0.14593  -0.14079  -0.12683  -0.11181
 Alpha virt. eigenvalues --   -0.10091  -0.09242  -0.08016  -0.07955  -0.07481
 Alpha virt. eigenvalues --   -0.07208  -0.07131  -0.05641  -0.05581  -0.05319

 Mulliken charges:
               1
     1  C    0.095350
     2  C   -0.412419
     3  C   -0.441445
     4  C    0.026704
     5  C    0.026741
     6  C   -0.441690
     7  C   -0.414207
     8  C    0.094095
     9  C   -0.335672
    10  C    0.099479
    11  C   -0.611048
    12  C    0.655037
    13  C   -0.616438
    14  C    0.656026
    15  H    0.236810
    16  H    0.256076
    17  H    0.251482
    18  H    0.221285
    19  H    0.190861
    20  H    0.221231
    21  H    0.251291
    22  H    0.255915
    23  H    0.236950
    24  H    0.250624
    25  H    0.246961
 Sum of Mulliken charges =   1.00000

 Dipole moment (field-independent basis, Debye):
    X=              0.0039    Y=              0.1843    Z=             -0.0004  Tot=              0.1843
 Quadrupole moment (field-independent basis, Debye-Ang):
   XX=            -31.2462   YY=            -56.2631   ZZ=            -84.0935
   XY=              0.0022   XZ=             -0.0037   YZ=              0.0716

 Normal termination of Gaussian 16 at Thu Jul 28 15:03:21 2022.
