 Gaussian 16, Revision C.01,
 Gaussian 16:  ES64L-G16RevC.01  3-Jul-2019

 ---------------------------------------------------------------
 #n M062X/6-311++G(d,p) TD(NStates=1) EmpiricalDispersion=GD3 SP
 ---------------------------------------------------------------

 -------
 SP_-125
 -------
 Symbolic Z-matrix:
 Charge =  1 Multiplicity = 1

                         Standard orientation:
 ---------------------------------------------------------------------
 Center     Atomic      Atomic             Coordinates (Angstroms)
 Number     Number       Type             X           Y           Z
 ---------------------------------------------------------------------
      1          6           0       -2.493049   -1.360821   -0.001250
      2          6           0       -3.707302   -0.672602    0.007510
      3          6           0       -3.695014    0.713244    0.008351
      4          6           0       -2.470542    1.407215   -0.001866
      5          6           0        2.469419    1.407957   -0.003567
      6          6           0        3.691309    0.714343    0.007384
      7          6           0        3.706290   -0.671506    0.007757
      8          6           0        2.491363   -1.360114    0.003331
      9          6           0        0.007920   -1.453378   -0.003200
     10          6           0       -0.000567    1.429280   -0.009174
     11          6           0       -1.256129   -0.677218   -0.007216
     12          6           0       -1.237955    0.730648   -0.001757
     13          6           0        1.256506   -0.676843   -0.007734
     14          6           0        1.238786    0.731031   -0.004185
     15          1           0       -2.488508   -2.443963   -0.016031
     16          1           0       -4.642192   -1.212430    0.004146
     17          1           0       -4.611299    1.271646    0.007307
     18          1           0       -2.474819    2.489667    0.012185
     19          1           0       -0.000552    2.510324   -0.000634
     20          1           0        2.473556    2.490419    0.009081
     21          1           0        4.606549    1.273028    0.004530
     22          1           0        4.639940   -1.211057    0.004317
     23          1           0        2.486962   -2.443264   -0.010397
     24          1           0        0.001722   -2.142164   -0.849984
     25          1           0        0.002437   -2.149629    0.869174
 ---------------------------------------------------------------------

 SCF Done:  E(RM062X) =  -539.759276892     A.U. after   15 cycles

 Excitation energies and oscillator strengths:

 Excited State   1:      Singlet-A      2.8099 eV  441.25 nm  f=0.0281  <S**2>=0.000
      47 -> 48         0.70427
 This state for optimization and/or second-order correction.
 Total Energy, E(TD-HF/TD-DFT) =  -539.656016056
 Copying the excited state density for this state as the 1-particle RhoCI density.

 The electronic state is 1-A.
 Alpha  occ. eigenvalues --  -10.77660 -10.73313 -10.73216 -10.72501 -10.72496
 Alpha  occ. eigenvalues --  -10.71473 -10.71421 -10.71060 -10.71043 -10.70982
 Alpha  occ. eigenvalues --  -10.70075 -10.70038 -10.69628 -10.69581  -1.16394
 Alpha  occ. eigenvalues --   -1.12307  -1.06863  -1.05782  -1.01166  -1.00196
 Alpha  occ. eigenvalues --   -0.95723  -0.91070  -0.86412  -0.85874  -0.83809
 Alpha  occ. eigenvalues --   -0.78391  -0.76015  -0.74386  -0.69571  -0.69287
 Alpha  occ. eigenvalues --   -0.68560  -0.68235  -0.68139  -0.64622  -0.64185
 Alpha  occ. eigenvalues --   -0.63148  -0.61965  -0.59944  -0.59561  -0.59132
 Alpha  occ. eigenvalues --   -0.56917  -0.55257  -0.54879  -0.52376  -0.46522
 Alpha  occ. eigenvalues --   -0.46052  -0.44430
 Alpha virt. eigenvalues --   -0.26075  -0.14757  -0.14119  -0.12869  -0.11178
 Alpha virt. eigenvalues --   -0.10082  -0.09218  -0.07996  -0.07944  -0.07471
 Alpha virt. eigenvalues --   -0.07213  -0.07147  -0.05645  -0.05582  -0.05348

 Mulliken charges:
               1
     1  C    0.085855
     2  C   -0.398150
     3  C   -0.440358
     4  C    0.029057
     5  C    0.027329
     6  C   -0.441665
     7  C   -0.403833
     8  C    0.082676
     9  C   -0.313286
    10  C    0.093612
    11  C   -0.633621
    12  C    0.665052
    13  C   -0.639111
    14  C    0.670446
    15  H    0.236786
    16  H    0.256764
    17  H    0.246536
    18  H    0.222491
    19  H    0.189280
    20  H    0.222460
    21  H    0.245964
    22  H    0.256566
    23  H    0.236845
    24  H    0.248928
    25  H    0.253377
 Sum of Mulliken charges =   1.00000

 Dipole moment (field-independent basis, Debye):
    X=             -0.0094    Y=              0.1901    Z=              0.0010  Tot=              0.1904
 Quadrupole moment (field-independent basis, Debye-Ang):
   XX=            -30.9859   YY=            -56.2613   ZZ=            -84.1904
   XY=             -0.0053   XZ=             -0.0086   YZ=              0.0735

 Normal termination of Gaussian 16 at Thu Jul 28 13:19:38 2022.
