 Gaussian 16, Revision C.01,
 Gaussian 16:  ES64L-G16RevC.01  3-Jul-2019

 ---------------------------------------------------------------
 #n M062X/6-311++G(d,p) TD(NStates=1) EmpiricalDispersion=GD3 SP
 ---------------------------------------------------------------

 ------
 SP_-75
 ------
 Symbolic Z-matrix:
 Charge =  1 Multiplicity = 1

                         Standard orientation:
 ---------------------------------------------------------------------
 Center     Atomic      Atomic             Coordinates (Angstroms)
 Number     Number       Type             X           Y           Z
 ---------------------------------------------------------------------
      1          6           0       -2.491216   -1.360596    0.003367
      2          6           0       -3.715466   -0.672294    0.020367
      3          6           0       -3.708132    0.713730    0.020896
      4          6           0       -2.481193    1.407992   -0.007390
      5          6           0        2.481519    1.407773   -0.006904
      6          6           0        3.709190    0.713411    0.021171
      7          6           0        3.715750   -0.672608    0.020294
      8          6           0        2.491694   -1.360784    0.002055
      9          6           0       -0.002264   -1.453438   -0.008849
     10          6           0        0.000166    1.429840   -0.024363
     11          6           0       -1.246808   -0.676764   -0.020024
     12          6           0       -1.239988    0.731114   -0.008210
     13          6           0        1.246702   -0.676873   -0.019880
     14          6           0        1.239754    0.730997   -0.007517
     15          1           0       -2.486951   -2.443312   -0.034551
     16          1           0       -4.647934   -1.211878    0.011255
     17          1           0       -4.607683    1.272469    0.015475
     18          1           0       -2.485068    2.490056    0.028066
     19          1           0        0.000161    2.510682   -0.001530
     20          1           0        2.485432    2.489830    0.028953
     21          1           0        4.609041    1.272064    0.016263
     22          1           0        4.648572   -1.212271    0.011202
     23          1           0        2.487391   -2.443495   -0.036164
     24          1           0       -0.000497   -2.130884   -0.833964
     25          1           0       -0.000701   -2.162252    0.884920
 ---------------------------------------------------------------------

 SCF Done:  E(RM062X) =  -539.754954116     A.U. after   15 cycles

 Excitation energies and oscillator strengths:

 Excited State   1:      Singlet-A      2.7838 eV  445.38 nm  f=0.0271  <S**2>=0.000
      47 -> 48         0.70427
 This state for optimization and/or second-order correction.
 Total Energy, E(TD-HF/TD-DFT) =  -539.652652368
 Copying the excited state density for this state as the 1-particle RhoCI density.

 The electronic state is 1-A.
 Alpha  occ. eigenvalues --  -10.77654 -10.73325 -10.73297 -10.72610 -10.72608
 Alpha  occ. eigenvalues --  -10.71588 -10.71573 -10.71135 -10.71130 -10.70980
 Alpha  occ. eigenvalues --  -10.70207 -10.70197 -10.69576 -10.69563  -1.16319
 Alpha  occ. eigenvalues --   -1.12040  -1.06738  -1.05855  -1.00960  -1.00173
 Alpha  occ. eigenvalues --   -0.95629  -0.91090  -0.86405  -0.85833  -0.83795
 Alpha  occ. eigenvalues --   -0.78392  -0.75984  -0.74332  -0.69610  -0.69408
 Alpha  occ. eigenvalues --   -0.68745  -0.68274  -0.68084  -0.64435  -0.64020
 Alpha  occ. eigenvalues --   -0.63231  -0.62127  -0.59822  -0.59360  -0.59189
 Alpha  occ. eigenvalues --   -0.56961  -0.55305  -0.54941  -0.52275  -0.46403
 Alpha  occ. eigenvalues --   -0.45988  -0.44302
 Alpha virt. eigenvalues --   -0.26061  -0.14928  -0.14159  -0.13040  -0.11177
 Alpha virt. eigenvalues --   -0.10078  -0.09199  -0.08038  -0.07889  -0.07461
 Alpha virt. eigenvalues --   -0.07245  -0.07135  -0.05649  -0.05584  -0.05377

 Mulliken charges:
               1
     1  C    0.054941
     2  C   -0.387948
     3  C   -0.443006
     4  C    0.078577
     5  C    0.079471
     6  C   -0.442393
     7  C   -0.385995
     8  C    0.055967
     9  C   -0.270158
    10  C    0.086005
    11  C   -0.593655
    12  C    0.580078
    13  C   -0.593999
    14  C    0.577969
    15  H    0.235045
    16  H    0.257242
    17  H    0.241535
    18  H    0.222518
    19  H    0.186385
    20  H    0.222510
    21  H    0.241725
    22  H    0.257260
    23  H    0.235094
    24  H    0.246928
    25  H    0.257905
 Sum of Mulliken charges =   1.00000

 Dipole moment (field-independent basis, Debye):
    X=              0.0028    Y=              0.1928    Z=              0.0031  Tot=              0.1928
 Quadrupole moment (field-independent basis, Debye-Ang):
   XX=            -30.7700   YY=            -56.2566   ZZ=            -84.2713
   XY=              0.0016   XZ=              0.0025   YZ=              0.1919

 Normal termination of Gaussian 16 at Thu Jul 28 14:12:55 2022.
