 Gaussian 16, Revision C.01,
 Gaussian 16:  ES64L-G16RevC.01  3-Jul-2019

 ---------------------------------------------------------------
 #n M062X/6-311++G(d,p) TD(NStates=1) EmpiricalDispersion=GD3 SP
 ---------------------------------------------------------------

 -------
 SP_-100
 -------
 Symbolic Z-matrix:
 Charge =  1 Multiplicity = 1

                         Standard orientation:
 ---------------------------------------------------------------------
 Center     Atomic      Atomic             Coordinates (Angstroms)
 Number     Number       Type             X           Y           Z
 ---------------------------------------------------------------------
      1          6           0       -2.492807   -1.360720   -0.000601
      2          6           0       -3.707157   -0.672445    0.007543
      3          6           0       -3.694484    0.713401    0.008218
      4          6           0       -2.470382    1.407321   -0.002100
      5          6           0        2.469580    1.407851   -0.003315
      6          6           0        3.691838    0.714186    0.007528
      7          6           0        3.706434   -0.671663    0.007720
      8          6           0        2.491604   -1.360215    0.002670
      9          6           0        0.005657   -1.453379   -0.003229
     10          6           0       -0.000405    1.429280   -0.009165
     11          6           0       -1.256183   -0.677164   -0.007292
     12          6           0       -1.238074    0.730703   -0.002098
     13          6           0        1.256452   -0.676896   -0.007662
     14          6           0        1.238668    0.730976   -0.003833
     15          1           0       -2.488286   -2.443863   -0.015238
     16          1           0       -4.641870   -1.212233    0.004166
     17          1           0       -4.610621    1.271844    0.006919
     18          1           0       -2.474638    2.489774    0.011756
     19          1           0       -0.000394    2.510325   -0.000619
     20          1           0        2.473736    2.490312    0.009539
     21          1           0        4.607228    1.272831    0.004935
     22          1           0        4.640261   -1.211253    0.004288
     23          1           0        2.487182   -2.443363   -0.011213
     24          1           0        0.001230   -2.141610   -0.849990
     25          1           0        0.001741   -2.150184    0.869161
 ---------------------------------------------------------------------

 SCF Done:  E(RM062X) =  -539.759299114     A.U. after   15 cycles

 Excitation energies and oscillator strengths:

 Excited State   1:      Singlet-A      2.8099 eV  441.24 nm  f=0.0281  <S**2>=0.000
      47 -> 48         0.70427
 This state for optimization and/or second-order correction.
 Total Energy, E(TD-HF/TD-DFT) =  -539.656037705
 Copying the excited state density for this state as the 1-particle RhoCI density.

 The electronic state is 1-A.
 Alpha  occ. eigenvalues --  -10.77660 -10.73299 -10.73230 -10.72500 -10.72497
 Alpha  occ. eigenvalues --  -10.71466 -10.71429 -10.71058 -10.71046 -10.70982
 Alpha  occ. eigenvalues --  -10.70070 -10.70043 -10.69622 -10.69588  -1.16394
 Alpha  occ. eigenvalues --   -1.12307  -1.06863  -1.05781  -1.01166  -1.00197
 Alpha  occ. eigenvalues --   -0.95724  -0.91070  -0.86411  -0.85874  -0.83809
 Alpha  occ. eigenvalues --   -0.78391  -0.76015  -0.74386  -0.69571  -0.69288
 Alpha  occ. eigenvalues --   -0.68561  -0.68235  -0.68138  -0.64622  -0.64184
 Alpha  occ. eigenvalues --   -0.63147  -0.61966  -0.59944  -0.59561  -0.59132
 Alpha  occ. eigenvalues --   -0.56917  -0.55254  -0.54883  -0.52376  -0.46522
 Alpha  occ. eigenvalues --   -0.46052  -0.44430
 Alpha virt. eigenvalues --   -0.26075  -0.14757  -0.14119  -0.12869  -0.11178
 Alpha virt. eigenvalues --   -0.10082  -0.09218  -0.07996  -0.07943  -0.07471
 Alpha virt. eigenvalues --   -0.07212  -0.07147  -0.05645  -0.05582  -0.05348

 Mulliken charges:
               1
     1  C    0.085411
     2  C   -0.399015
     3  C   -0.440564
     4  C    0.028896
     5  C    0.027659
     6  C   -0.441498
     7  C   -0.403075
     8  C    0.083131
     9  C   -0.313147
    10  C    0.093691
    11  C   -0.634468
    12  C    0.665766
    13  C   -0.638387
    14  C    0.669623
    15  H    0.236797
    16  H    0.256735
    17  H    0.246455
    18  H    0.222487
    19  H    0.189277
    20  H    0.222465
    21  H    0.246046
    22  H    0.256593
    23  H    0.236839
    24  H    0.248975
    25  H    0.253308
 Sum of Mulliken charges =   1.00000

 Dipole moment (field-independent basis, Debye):
    X=             -0.0067    Y=              0.1902    Z=              0.0009  Tot=              0.1903
 Quadrupole moment (field-independent basis, Debye-Ang):
   XX=            -30.9858   YY=            -56.2613   ZZ=            -84.1904
   XY=             -0.0038   XZ=             -0.0061   YZ=              0.0732

 Normal termination of Gaussian 16 at Thu Jul 28 13:42:32 2022.
