 Gaussian 16, Revision C.01,
 Gaussian 16:  ES64L-G16RevC.01  3-Jul-2019

 ---------------------------------------------------------------
 #n M062X/6-311++G(d,p) TD(NStates=1) EmpiricalDispersion=GD3 SP
 ---------------------------------------------------------------

 -------
 SP_-100
 -------
 Symbolic Z-matrix:
 Charge =  1 Multiplicity = 1

                         Standard orientation:
 ---------------------------------------------------------------------
 Center     Atomic      Atomic             Coordinates (Angstroms)
 Number     Number       Type             X           Y           Z
 ---------------------------------------------------------------------
      1          6           0        1.360690    0.002716    2.491455
      2          6           0        0.672451    0.020333    3.715608
      3          6           0       -0.713570    0.021028    3.708661
      4          6           0       -1.407882   -0.007156    2.481356
      5          6           0       -1.407882   -0.007156   -2.481356
      6          6           0       -0.713570    0.021028   -3.708661
      7          6           0        0.672451    0.020333   -3.715608
      8          6           0        1.360690    0.002716   -2.491455
      9          6           0        1.453439   -0.008818   -0.000000
     10          6           0       -1.429839   -0.024372    0.000000
     11          6           0        0.676819   -0.019950    1.246755
     12          6           0       -0.731056   -0.007869    1.239871
     13          6           0        0.676819   -0.019950   -1.246755
     14          6           0       -0.731056   -0.007869   -1.239871
     15          1           0        2.443403   -0.035346    2.487171
     16          1           0        1.212074    0.011233    4.648253
     17          1           0       -1.272267    0.015861    4.608362
     18          1           0       -2.489943    0.028495    2.485250
     19          1           0       -2.510682   -0.001545    0.000000
     20          1           0       -2.489943    0.028495   -2.485250
     21          1           0       -1.272267    0.015861   -4.608362
     22          1           0        1.212074    0.011233   -4.648253
     23          1           0        2.443403   -0.035346   -2.487171
     24          1           0        2.131439   -0.833964   -0.000000
     25          1           0        2.161698    0.884940   -0.000000
 ---------------------------------------------------------------------

 SCF Done:  E(RM062X) =  -539.754991661     A.U. after   15 cycles

 Excitation energies and oscillator strengths:

 Excited State   1:      Singlet-A'     2.7838 eV  445.38 nm  f=0.0271  <S**2>=0.000
      47 -> 48         0.70427
 This state for optimization and/or second-order correction.
 Total Energy, E(TD-HF/TD-DFT) =  -539.652689394
 Copying the excited state density for this state as the 1-particle RhoCI density.

 The electronic state is 1-A'.
 Alpha  occ. eigenvalues --  -10.77654 -10.73311 -10.73310 -10.72610 -10.72608
 Alpha  occ. eigenvalues --  -10.71580 -10.71580 -10.71132 -10.71132 -10.70980
 Alpha  occ. eigenvalues --  -10.70202 -10.70202 -10.69570 -10.69570  -1.16319
 Alpha  occ. eigenvalues --   -1.12040  -1.06738  -1.05854  -1.00960  -1.00173
 Alpha  occ. eigenvalues --   -0.95629  -0.91089  -0.86405  -0.85833  -0.83795
 Alpha  occ. eigenvalues --   -0.78392  -0.75984  -0.74332  -0.69608  -0.69408
 Alpha  occ. eigenvalues --   -0.68744  -0.68274  -0.68086  -0.64435  -0.64020
 Alpha  occ. eigenvalues --   -0.63231  -0.62127  -0.59822  -0.59360  -0.59189
 Alpha  occ. eigenvalues --   -0.56961  -0.55305  -0.54942  -0.52275  -0.46403
 Alpha  occ. eigenvalues --   -0.45988  -0.44302
 Alpha virt. eigenvalues --   -0.26060  -0.14928  -0.14159  -0.13040  -0.11177
 Alpha virt. eigenvalues --   -0.10078  -0.09199  -0.08038  -0.07889  -0.07461
 Alpha virt. eigenvalues --   -0.07246  -0.07134  -0.05649  -0.05584  -0.05376

 Mulliken charges:
               1
     1  C    0.055535
     2  C   -0.386959
     3  C   -0.442705
     4  C    0.079066
     5  C    0.079066
     6  C   -0.442705
     7  C   -0.386959
     8  C    0.055535
     9  C   -0.270307
    10  C    0.086027
    11  C   -0.593912
    12  C    0.579025
    13  C   -0.593912
    14  C    0.579025
    15  H    0.235069
    16  H    0.257251
    17  H    0.241630
    18  H    0.222515
    19  H    0.186380
    20  H    0.222515
    21  H    0.241630
    22  H    0.257251
    23  H    0.235069
    24  H    0.246891
    25  H    0.257979
 Sum of Mulliken charges =   1.00000

 Dipole moment (field-independent basis, Debye):
    X=             -0.1927    Y=              0.0033    Z=              0.0000  Tot=              0.1928
 Quadrupole moment (field-independent basis, Debye-Ang):
   XX=            -56.2567   YY=            -84.2713   ZZ=            -30.7701
   XY=             -0.1923   XZ=              0.0000   YZ=              0.0000

 Normal termination of Gaussian 16 at Thu Jul 28 13:50:13 2022.
