 Gaussian 16, Revision C.01,
 Gaussian 16:  ES64L-G16RevC.01  3-Jul-2019

 ---------------------------------------------------------------
 #n M062X/6-311++G(d,p) TD(NStates=1) EmpiricalDispersion=GD3 SP
 ---------------------------------------------------------------

 ------
 SP_-50
 ------
 Symbolic Z-matrix:
 Charge =  1 Multiplicity = 1

                         Standard orientation:
 ---------------------------------------------------------------------
 Center     Atomic      Atomic             Coordinates (Angstroms)
 Number     Number       Type             X           Y           Z
 ---------------------------------------------------------------------
      1          6           0       -2.491247   -1.360486    0.003353
      2          6           0       -3.713632   -0.672108    0.017844
      3          6           0       -3.704768    0.713870    0.018201
      4          6           0       -2.478837    1.407965   -0.006613
      5          6           0        2.479325    1.407638   -0.005885
      6          6           0        3.706354    0.713392    0.018614
      7          6           0        3.714060   -0.672578    0.017735
      8          6           0        2.491964   -1.360772    0.001386
      9          6           0       -0.003396   -1.453422   -0.007762
     10          6           0        0.000248    1.429687   -0.021314
     11          6           0       -1.248748   -0.676795   -0.017568
     12          6           0       -1.239747    0.731084   -0.007397
     13          6           0        1.248587   -0.676957   -0.017351
     14          6           0        1.239395    0.730910   -0.006358
     15          1           0       -2.486954   -2.443321   -0.029735
     16          1           0       -4.646336   -1.211689    0.009863
     17          1           0       -4.607456    1.272588    0.013299
     18          1           0       -2.482765    2.490138    0.024289
     19          1           0        0.000241    2.510585   -0.001331
     20          1           0        2.483310    2.489802    0.025619
     21          1           0        4.609493    1.271984    0.014482
     22          1           0        4.647295   -1.212279    0.009784
     23          1           0        2.487614   -2.443600   -0.032153
     24          1           0       -0.000744   -2.132315   -0.837181
     25          1           0       -0.001050   -2.160455    0.881760
 ---------------------------------------------------------------------

 SCF Done:  E(RM062X) =  -539.756077080     A.U. after   15 cycles

 Excitation energies and oscillator strengths:

 Excited State   1:      Singlet-A      2.7894 eV  444.48 nm  f=0.0273  <S**2>=0.000
      47 -> 48         0.70427
 This state for optimization and/or second-order correction.
 Total Energy, E(TD-HF/TD-DFT) =  -539.653567475
 Copying the excited state density for this state as the 1-particle RhoCI density.

 The electronic state is 1-A.
 Alpha  occ. eigenvalues --  -10.77655 -10.73322 -10.73280 -10.72588 -10.72585
 Alpha  occ. eigenvalues --  -10.71564 -10.71542 -10.71120 -10.71112 -10.70980
 Alpha  occ. eigenvalues --  -10.70180 -10.70165 -10.69586 -10.69566  -1.16333
 Alpha  occ. eigenvalues --   -1.12093  -1.06762  -1.05841  -1.00996  -1.00183
 Alpha  occ. eigenvalues --   -0.95648  -0.91086  -0.86406  -0.85841  -0.83798
 Alpha  occ. eigenvalues --   -0.78391  -0.75991  -0.74343  -0.69600  -0.69379
 Alpha  occ. eigenvalues --   -0.68706  -0.68269  -0.68100  -0.64471  -0.64053
 Alpha  occ. eigenvalues --   -0.63219  -0.62096  -0.59848  -0.59401  -0.59179
 Alpha  occ. eigenvalues --   -0.56951  -0.55296  -0.54932  -0.52295  -0.46421
 Alpha  occ. eigenvalues --   -0.46008  -0.44329
 Alpha virt. eigenvalues --   -0.26063  -0.14892  -0.14151  -0.13005  -0.11177
 Alpha virt. eigenvalues --   -0.10078  -0.09203  -0.08030  -0.07899  -0.07463
 Alpha virt. eigenvalues --   -0.07237  -0.07138  -0.05648  -0.05583  -0.05370

 Mulliken charges:
               1
     1  C    0.061069
     2  C   -0.392070
     3  C   -0.443220
     4  C    0.068483
     5  C    0.069681
     6  C   -0.442363
     7  C   -0.389201
     8  C    0.062544
     9  C   -0.276247
    10  C    0.089948
    11  C   -0.604752
    12  C    0.598519
    13  C   -0.604795
    14  C    0.595496
    15  H    0.235399
    16  H    0.257131
    17  H    0.242427
    18  H    0.222607
    19  H    0.187022
    20  H    0.222598
    21  H    0.242705
    22  H    0.257168
    23  H    0.235453
    24  H    0.247454
    25  H    0.256943
 Sum of Mulliken charges =   1.00000

 Dipole moment (field-independent basis, Debye):
    X=              0.0041    Y=              0.1924    Z=              0.0024  Tot=              0.1925
 Quadrupole moment (field-independent basis, Debye-Ang):
   XX=            -30.8126   YY=            -56.2577   ZZ=            -84.2551
   XY=              0.0023   XZ=              0.0037   YZ=              0.1678

 Normal termination of Gaussian 16 at Thu Jul 28 14:33:56 2022.
