 Gaussian 16, Revision C.01,
 Gaussian 16:  ES64L-G16RevC.01  3-Jul-2019

 ---------------------------------------------------------------
 #n M062X/6-311++G(d,p) TD(NStates=1) EmpiricalDispersion=GD3 SP
 ---------------------------------------------------------------

 -------
 SP_-100
 -------
 Symbolic Z-matrix:
 Charge =  1 Multiplicity = 1

                         Standard orientation:
 ---------------------------------------------------------------------
 Center     Atomic      Atomic             Coordinates (Angstroms)
 Number     Number       Type             X           Y           Z
 ---------------------------------------------------------------------
      1          6           0       -2.493625   -1.360852   -0.002590
      2          6           0       -3.702093   -0.672614   -0.000130
      3          6           0       -3.685979    0.713208    0.000533
      4          6           0       -2.463791    1.407122    0.000937
      5          6           0        2.462520    1.407954   -0.001009
      6          6           0        3.681743    0.714451   -0.000574
      7          6           0        3.700924   -0.671364    0.000146
      8          6           0        2.491688   -1.360010    0.002636
      9          6           0        0.009047   -1.453367    0.000120
     10          6           0       -0.000639    1.429189   -0.000036
     11          6           0       -1.261839   -0.677278    0.000309
     12          6           0       -1.236992    0.730595    0.001367
     13          6           0        1.262271   -0.676852   -0.000293
     14          6           0        1.237949    0.731013   -0.001411
     15          1           0       -2.488958   -2.444067   -0.003169
     16          1           0       -4.638047   -1.212472   -0.000073
     17          1           0       -4.611974    1.271571    0.001562
     18          1           0       -2.468268    2.489642    0.001716
     19          1           0       -0.000622    2.510266   -0.000060
     20          1           0        2.466831    2.490475   -0.001834
     21          1           0        4.606549    1.273127   -0.001626
     22          1           0        4.635460   -1.210907    0.000113
     23          1           0        2.487187   -2.443227    0.003262
     24          1           0        0.001955   -2.148005   -0.859547
     25          1           0        0.002773   -2.143568    0.859623
 ---------------------------------------------------------------------

 SCF Done:  E(RM062X) =  -539.760144266     A.U. after   15 cycles

 Excitation energies and oscillator strengths:

 Excited State   1:      Singlet-A      2.8228 eV  439.23 nm  f=0.0287  <S**2>=0.000
      47 -> 48         0.70426
 This state for optimization and/or second-order correction.
 Total Energy, E(TD-HF/TD-DFT) =  -539.656409203
 Copying the excited state density for this state as the 1-particle RhoCI density.

 The electronic state is 1-A.
 Alpha  occ. eigenvalues --  -10.77665 -10.73295 -10.73185 -10.72438 -10.72433
 Alpha  occ. eigenvalues --  -10.71398 -10.71339 -10.71014 -10.70995 -10.70980
 Alpha  occ. eigenvalues --  -10.69994 -10.69951 -10.69657 -10.69602  -1.16443
 Alpha  occ. eigenvalues --   -1.12466  -1.06945  -1.05734  -1.01313  -1.00184
 Alpha  occ. eigenvalues --   -0.95782  -0.91056  -0.86420  -0.85900  -0.83816
 Alpha  occ. eigenvalues --   -0.78400  -0.76028  -0.74418  -0.69563  -0.69245
 Alpha  occ. eigenvalues --   -0.68504  -0.68194  -0.68102  -0.64739  -0.64285
 Alpha  occ. eigenvalues --   -0.63069  -0.61862  -0.60004  -0.59678  -0.59093
 Alpha  occ. eigenvalues --   -0.56897  -0.55222  -0.54828  -0.52438  -0.46625
 Alpha  occ. eigenvalues --   -0.46056  -0.44501
 Alpha virt. eigenvalues --   -0.26088  -0.14669  -0.14098  -0.12774  -0.11179
 Alpha virt. eigenvalues --   -0.10086  -0.09230  -0.07983  -0.07970  -0.07476
 Alpha virt. eigenvalues --   -0.07203  -0.07146  -0.05643  -0.05581  -0.05332

 Mulliken charges:
               1
     1  C    0.094951
     2  C   -0.403865
     3  C   -0.439573
     4  C    0.015149
     5  C    0.013873
     6  C   -0.440527
     7  C   -0.409386
     8  C    0.091261
     9  C   -0.334229
    10  C    0.093045
    11  C   -0.630693
    12  C    0.683761
    13  C   -0.641749
    14  C    0.688477
    15  H    0.237169
    16  H    0.256470
    17  H    0.249180
    18  H    0.222055
    19  H    0.190412
    20  H    0.221963
    21  H    0.248594
    22  H    0.256143
    23  H    0.237389
    24  H    0.249830
    25  H    0.250298
 Sum of Mulliken charges =   1.00000

 Dipole moment (field-independent basis, Debye):
    X=             -0.0105    Y=              0.1875    Z=              0.0005  Tot=              0.1878
 Quadrupole moment (field-independent basis, Debye-Ang):
   XX=            -31.1161   YY=            -56.2626   ZZ=            -84.1418
   XY=             -0.0059   XZ=             -0.0098   YZ=              0.0014

 Normal termination of Gaussian 16 at Thu Jul 28 13:37:31 2022.
