 Gaussian 16, Revision C.01,
 Gaussian 16:  ES64L-G16RevC.01  3-Jul-2019

 ---------------------------------------------------------------
 #n M062X/6-311++G(d,p) TD(NStates=1) EmpiricalDispersion=GD3 SP
 ---------------------------------------------------------------

 -----
 SP_75
 -----
 Symbolic Z-matrix:
 Charge =  1 Multiplicity = 1

                         Standard orientation:
 ---------------------------------------------------------------------
 Center     Atomic      Atomic             Coordinates (Angstroms)
 Number     Number       Type             X           Y           Z
 ---------------------------------------------------------------------
      1          6           0        2.494374   -1.360935    0.004021
      2          6           0        3.685871   -0.672807    0.022918
      3          6           0        3.656757    0.713275    0.023455
      4          6           0        2.442912    1.407827   -0.008401
      5          6           0       -2.442450    1.408120   -0.007670
      6          6           0       -3.655165    0.713727    0.023873
      7          6           0       -3.685420   -0.672341    0.022822
      8          6           0       -2.493636   -1.360582    0.002071
      9          6           0       -0.003389   -1.453457   -0.009967
     10          6           0        0.000229    1.430012   -0.027402
     11          6           0        1.279185   -0.676831   -0.022565
     12          6           0        1.234587    0.731055   -0.009366
     13          6           0       -1.279350   -0.676675   -0.022329
     14          6           0       -1.234955    0.731190   -0.008321
     15          1           0        2.489418   -2.443519   -0.038581
     16          1           0        4.624308   -1.212469    0.012657
     17          1           0        4.611290    1.271967    0.017250
     18          1           0        2.447903    2.489771    0.031414
     19          1           0        0.000223    2.510793   -0.001713
     20          1           0       -2.447372    2.490053    0.032746
     21          1           0       -4.609259    1.272523    0.018462
     22          1           0       -4.623324   -1.211885    0.012600
     23          1           0       -2.488749   -2.443158   -0.040983
     24          1           0       -0.000719   -2.164628    0.888056
     25          1           0       -0.001027   -2.128923   -0.830744
 ---------------------------------------------------------------------

 SCF Done:  E(RM062X) =  -539.755535550     A.U. after   15 cycles

 Excitation energies and oscillator strengths:

 Excited State   1:      Singlet-A      2.8487 eV  435.23 nm  f=0.0303  <S**2>=0.000
      47 -> 48         0.70421
 This state for optimization and/or second-order correction.
 Total Energy, E(TD-HF/TD-DFT) =  -539.650847254
 Copying the excited state density for this state as the 1-particle RhoCI density.

 The electronic state is 1-A.
 Alpha  occ. eigenvalues --  -10.77692 -10.73202 -10.73160 -10.72260 -10.72257
 Alpha  occ. eigenvalues --  -10.71150 -10.71127 -10.70965 -10.70873 -10.70866
 Alpha  occ. eigenvalues --  -10.69741 -10.69730 -10.69725 -10.69710  -1.16604
 Alpha  occ. eigenvalues --   -1.12936  -1.07211  -1.05569  -1.01810  -1.00077
 Alpha  occ. eigenvalues --   -0.95963  -0.91005  -0.86454  -0.85990  -0.83832
 Alpha  occ. eigenvalues --   -0.78461  -0.76040  -0.74510  -0.69575  -0.69244
 Alpha  occ. eigenvalues --   -0.68537  -0.67996  -0.67753  -0.65094  -0.64590
 Alpha  occ. eigenvalues --   -0.62710  -0.61555  -0.60105  -0.60013  -0.58950
 Alpha  occ. eigenvalues --   -0.56858  -0.55089  -0.54637  -0.52625  -0.46993
 Alpha  occ. eigenvalues --   -0.45992  -0.44682
 Alpha virt. eigenvalues --   -0.26148  -0.14475  -0.14048  -0.12520  -0.11186
 Alpha virt. eigenvalues --   -0.10105  -0.09266  -0.08092  -0.07927  -0.07489
 Alpha virt. eigenvalues --   -0.07234  -0.07089  -0.05636  -0.05582  -0.05296

 Mulliken charges:
               1
     1  C    0.085420
     2  C   -0.415779
     3  C   -0.439576
     4  C    0.073904
     5  C    0.075647
     6  C   -0.439568
     7  C   -0.417241
     8  C    0.085126
     9  C   -0.356452
    10  C    0.087484
    11  C   -0.529171
    12  C    0.556939
    13  C   -0.535030
    14  C    0.556212
    15  H    0.235276
    16  H    0.255377
    17  H    0.255858
    18  H    0.218930
    19  H    0.189838
    20  H    0.218856
    21  H    0.255737
    22  H    0.255132
    23  H    0.235553
    24  H    0.251079
    25  H    0.240449
 Sum of Mulliken charges =   1.00000

 Dipole moment (field-independent basis, Debye):
    X=              0.0037    Y=              0.1755    Z=             -0.0026  Tot=              0.1755
 Quadrupole moment (field-independent basis, Debye-Ang):
   XX=            -31.5088   YY=            -56.2604   ZZ=            -83.9971
   XY=              0.0020   XZ=             -0.0036   YZ=              0.2145

 Normal termination of Gaussian 16 at Thu Jul 28 16:01:24 2022.
