 Gaussian 16, Revision C.01,
 Gaussian 16:  ES64L-G16RevC.01  3-Jul-2019

 ---------------------------------------------------------------
 #n M062X/6-311++G(d,p) TD(NStates=1) EmpiricalDispersion=GD3 SP
 ---------------------------------------------------------------

 -------
 SP_-150
 -------
 Symbolic Z-matrix:
 Charge =  1 Multiplicity = 1

                         Standard orientation:
 ---------------------------------------------------------------------
 Center     Atomic      Atomic             Coordinates (Angstroms)
 Number     Number       Type             X           Y           Z
 ---------------------------------------------------------------------
      1          6           0        1.361013    0.004065    2.490855
      2          6           0        0.673029    0.030489    3.722658
      3          6           0       -0.713246    0.031540    3.721061
      4          6           0       -1.408312   -0.010723    2.490456
      5          6           0       -1.408312   -0.010723   -2.490456
      6          6           0       -0.713246    0.031540   -3.721061
      7          6           0        0.673029    0.030489   -3.722658
      8          6           0        1.361013    0.004065   -2.490855
      9          6           0        1.453526   -0.013233   -0.000000
     10          6           0       -1.430653   -0.036542    0.000000
     11          6           0        0.676511   -0.029924    1.239105
     12          6           0       -0.731370   -0.011796    1.241071
     13          6           0        0.676511   -0.029924   -1.239105
     14          6           0       -0.731370   -0.011796   -1.241071
     15          1           0        2.443099   -0.053024    2.486721
     16          1           0        1.212556    0.016839    4.654003
     17          1           0       -1.272164    0.023794    4.607912
     18          1           0       -2.489798    0.042749    2.494100
     19          1           0       -2.511202   -0.002301    0.000000
     20          1           0       -2.489798    0.042749   -2.494100
     21          1           0       -1.272164    0.023794   -4.607912
     22          1           0        1.212556    0.016839   -4.654003
     23          1           0        2.443099   -0.053024   -2.486721
     24          1           0        2.124849   -0.821074   -0.000000
     25          1           0        2.170240    0.897496   -0.000000
 ---------------------------------------------------------------------

 SCF Done:  E(RM062X) =  -539.749040009     A.U. after   15 cycles

 Excitation energies and oscillator strengths:

 Excited State   1:      Singlet-A'     2.7590 eV  449.38 nm  f=0.0263  <S**2>=0.000
      47 -> 48         0.70427
 This state for optimization and/or second-order correction.
 Total Energy, E(TD-HF/TD-DFT) =  -539.647647776
 Copying the excited state density for this state as the 1-particle RhoCI density.

 The electronic state is 1-A'.
 Alpha  occ. eigenvalues --  -10.77654 -10.73352 -10.73352 -10.72702 -10.72701
 Alpha  occ. eigenvalues --  -10.71688 -10.71688 -10.71199 -10.71199 -10.70976
 Alpha  occ. eigenvalues --  -10.70323 -10.70323 -10.69547 -10.69547  -1.16265
 Alpha  occ. eigenvalues --   -1.11824  -1.06653  -1.05901  -1.00848  -1.00097
 Alpha  occ. eigenvalues --   -0.95556  -0.91100  -0.86405  -0.85802  -0.83782
 Alpha  occ. eigenvalues --   -0.78405  -0.75950  -0.74288  -0.69667  -0.69544
 Alpha  occ. eigenvalues --   -0.68906  -0.68284  -0.68000  -0.64297  -0.63892
 Alpha  occ. eigenvalues --   -0.63250  -0.62243  -0.59710  -0.59225  -0.59193
 Alpha  occ. eigenvalues --   -0.57008  -0.55342  -0.54961  -0.52194  -0.46363
 Alpha  occ. eigenvalues --   -0.45877  -0.44191
 Alpha virt. eigenvalues --   -0.26056  -0.15088  -0.14196  -0.13187  -0.11179
 Alpha virt. eigenvalues --   -0.10076  -0.09185  -0.08078  -0.07850  -0.07453
 Alpha virt. eigenvalues --   -0.07279  -0.07120  -0.05653  -0.05586  -0.05402

 Mulliken charges:
               1
     1  C    0.031176
     2  C   -0.371026
     3  C   -0.440909
     4  C    0.109393
     5  C    0.109393
     6  C   -0.440909
     7  C   -0.371026
     8  C    0.031176
     9  C   -0.256345
    10  C    0.063519
    11  C   -0.546060
    12  C    0.518204
    13  C   -0.546060
    14  C    0.518204
    15  H    0.233733
    16  H    0.257529
    17  H    0.237940
    18  H    0.221466
    19  H    0.183919
    20  H    0.221466
    21  H    0.237940
    22  H    0.257529
    23  H    0.233733
    24  H    0.244562
    25  H    0.261453
 Sum of Mulliken charges =   1.00000

 Dipole moment (field-independent basis, Debye):
    X=             -0.1929    Y=              0.0070    Z=             -0.0000  Tot=              0.1930
 Quadrupole moment (field-independent basis, Debye-Ang):
   XX=            -56.2510   YY=            -84.3350   ZZ=            -30.6041
   XY=             -0.2873   XZ=              0.0000   YZ=              0.0000

 Normal termination of Gaussian 16 at Thu Jul 28 13:11:17 2022.
