 Gaussian 16, Revision C.01,
 Gaussian 16:  ES64L-G16RevC.01  3-Jul-2019

 ---------------------------------------------------------------
 #n M062X/6-311++G(d,p) TD(NStates=1) EmpiricalDispersion=GD3 SP
 ---------------------------------------------------------------

 -----
 SP_50
 -----
 Symbolic Z-matrix:
 Charge =  1 Multiplicity = 1

                         Standard orientation:
 ---------------------------------------------------------------------
 Center     Atomic      Atomic             Coordinates (Angstroms)
 Number     Number       Type             X           Y           Z
 ---------------------------------------------------------------------
      1          6           0        2.492712   -1.360339    0.000033
      2          6           0        3.697836   -0.671862    0.005052
      3          6           0        3.677131    0.713968    0.005390
      4          6           0        2.458448    1.407662   -0.001556
      5          6           0       -2.458764    1.407457   -0.002043
      6          6           0       -3.678191    0.713659    0.005113
      7          6           0       -3.698130   -0.672174    0.005120
      8          6           0       -2.493198   -1.360555    0.001338
      9          6           0        0.002261   -1.453373   -0.002172
     10          6           0       -0.000158    1.429230   -0.006104
     11          6           0        1.265934   -0.676997   -0.004910
     12          6           0        1.236991    0.730870   -0.001626
     13          6           0       -1.265826   -0.677103   -0.005062
     14          6           0       -1.236751    0.730769   -0.002321
     15          1           0        2.488074   -2.443523   -0.009628
     16          1           0        4.633554   -1.211518    0.002792
     17          1           0        4.608809    1.272536    0.004356
     18          1           0        2.462946    2.490154    0.007552
     19          1           0       -0.000154    2.510292   -0.000403
     20          1           0       -2.463304    2.489950    0.006664
     21          1           0       -4.610165    1.272151    0.003557
     22          1           0       -4.634202   -1.211908    0.002837
     23          1           0       -2.488518   -2.443740   -0.008022
     24          1           0        0.000487   -2.149064    0.865963
     25          1           0        0.000691   -2.142608   -0.853195
 ---------------------------------------------------------------------

 SCF Done:  E(RM062X) =  -539.760166318     A.U. after   15 cycles

 Excitation energies and oscillator strengths:

 Excited State   1:      Singlet-A      2.8303 eV  438.06 nm  f=0.0291  <S**2>=0.000
      47 -> 48         0.70425
 This state for optimization and/or second-order correction.
 Total Energy, E(TD-HF/TD-DFT) =  -539.656155788
 Copying the excited state density for this state as the 1-particle RhoCI density.

 The electronic state is 1-A.
 Alpha  occ. eigenvalues --  -10.77670 -10.73239 -10.73211 -10.72395 -10.72393
 Alpha  occ. eigenvalues --  -10.71324 -10.71309 -10.70978 -10.70976 -10.70972
 Alpha  occ. eigenvalues --  -10.69923 -10.69912 -10.69654 -10.69641  -1.16476
 Alpha  occ. eigenvalues --   -1.12571  -1.07001  -1.05696  -1.01418  -1.00168
 Alpha  occ. eigenvalues --   -0.95821  -0.91045  -0.86424  -0.85921  -0.83820
 Alpha  occ. eigenvalues --   -0.78409  -0.76034  -0.74439  -0.69559  -0.69230
 Alpha  occ. eigenvalues --   -0.68494  -0.68158  -0.68048  -0.64818  -0.64352
 Alpha  occ. eigenvalues --   -0.63001  -0.61797  -0.60037  -0.59756  -0.59064
 Alpha  occ. eigenvalues --   -0.56886  -0.55189  -0.54801  -0.52479  -0.46702
 Alpha  occ. eigenvalues --   -0.46050  -0.44546
 Alpha virt. eigenvalues --   -0.26099  -0.14617  -0.14085  -0.12713  -0.11180
 Alpha virt. eigenvalues --   -0.10089  -0.09238  -0.08003  -0.07961  -0.07479
 Alpha virt. eigenvalues --   -0.07206  -0.07137  -0.05641  -0.05581  -0.05323

 Mulliken charges:
               1
     1  C    0.094646
     2  C   -0.411893
     3  C   -0.441106
     4  C    0.020312
     5  C    0.020431
     6  C   -0.440922
     7  C   -0.410644
     8  C    0.095544
     9  C   -0.336277
    10  C    0.097419
    11  C   -0.625426
    12  C    0.670486
    13  C   -0.622056
    14  C    0.669625
    15  H    0.237131
    16  H    0.256046
    17  H    0.250506
    18  H    0.221521
    19  H    0.190783
    20  H    0.221553
    21  H    0.250640
    22  H    0.256144
    23  H    0.237051
    24  H    0.250595
    25  H    0.247892
 Sum of Mulliken charges =   1.00000

 Dipole moment (field-independent basis, Debye):
    X=             -0.0026    Y=              0.1854    Z=              0.0001  Tot=              0.1855
 Quadrupole moment (field-independent basis, Debye-Ang):
   XX=            -31.2029   YY=            -56.2631   ZZ=            -84.1096
   XY=             -0.0014   XZ=              0.0025   YZ=              0.0484

 Normal termination of Gaussian 16 at Thu Jul 28 15:49:40 2022.
