 Gaussian 16, Revision C.01,
 Gaussian 16:  ES64L-G16RevC.01  3-Jul-2019

 ---------------------------------------------------------------
 #n M062X/6-311++G(d,p) TD(NStates=1) EmpiricalDispersion=GD3 SP
 ---------------------------------------------------------------

 -------
 SP_-100
 -------
 Symbolic Z-matrix:
 Charge =  1 Multiplicity = 1

                         Standard orientation:
 ---------------------------------------------------------------------
 Center     Atomic      Atomic             Coordinates (Angstroms)
 Number     Number       Type             X           Y           Z
 ---------------------------------------------------------------------
      1          6           0       -2.491186   -1.360712    0.003380
      2          6           0       -3.717300   -0.672495    0.022890
      3          6           0       -3.711497    0.713582    0.023590
      4          6           0       -2.483549    1.408029   -0.008166
      5          6           0        2.483713    1.407918   -0.007923
      6          6           0        3.712025    0.713421    0.023728
      7          6           0        3.717441   -0.672652    0.022853
      8          6           0        2.491424   -1.360805    0.002724
      9          6           0       -0.001132   -1.453457   -0.009937
     10          6           0        0.000083    1.430012   -0.027412
     11          6           0       -1.244869   -0.676726   -0.022481
     12          6           0       -1.240229    0.731152   -0.009022
     13          6           0        1.244816   -0.676780   -0.022409
     14          6           0        1.240113    0.731093   -0.008676
     15          1           0       -2.486949   -2.443294   -0.039368
     16          1           0       -4.649531   -1.212079    0.012647
     17          1           0       -4.607910    1.272347    0.017651
     18          1           0       -2.487371    2.489969    0.031844
     19          1           0        0.000081    2.510793   -0.001728
     20          1           0        2.487554    2.489855    0.032287
     21          1           0        4.608589    1.272143    0.018044
     22          1           0        4.649850   -1.212275    0.012620
     23          1           0        2.487168   -2.443383   -0.040174
     24          1           0       -0.000249   -2.129478   -0.830745
     25          1           0       -0.000351   -2.164074    0.888077
 ---------------------------------------------------------------------

 SCF Done:  E(RM062X) =  -539.753693307     A.U. after   15 cycles

 Excitation energies and oscillator strengths:

 Excited State   1:      Singlet-A      2.7779 eV  446.32 nm  f=0.0269  <S**2>=0.000
      47 -> 48         0.70427
 This state for optimization and/or second-order correction.
 Total Energy, E(TD-HF/TD-DFT) =  -539.651607294
 Copying the excited state density for this state as the 1-particle RhoCI density.

 The electronic state is 1-A.
 Alpha  occ. eigenvalues --  -10.77654 -10.73328 -10.73314 -10.72633 -10.72631
 Alpha  occ. eigenvalues --  -10.71611 -10.71603 -10.71150 -10.71147 -10.70979
 Alpha  occ. eigenvalues --  -10.70235 -10.70229 -10.69567 -10.69560  -1.16305
 Alpha  occ. eigenvalues --   -1.11986  -1.06716  -1.05867  -1.00927  -1.00159
 Alpha  occ. eigenvalues --   -0.95611  -0.91093  -0.86405  -0.85825  -0.83792
 Alpha  occ. eigenvalues --   -0.78394  -0.75976  -0.74321  -0.69621  -0.69439
 Alpha  occ. eigenvalues --   -0.68786  -0.68278  -0.68066  -0.64399  -0.63988
 Alpha  occ. eigenvalues --   -0.63240  -0.62157  -0.59795  -0.59318  -0.59199
 Alpha  occ. eigenvalues --   -0.56972  -0.55315  -0.54949  -0.52255  -0.46389
 Alpha  occ. eigenvalues --   -0.45964  -0.44275
 Alpha virt. eigenvalues --   -0.26059  -0.14966  -0.14168  -0.13076  -0.11177
 Alpha virt. eigenvalues --   -0.10077  -0.09196  -0.08048  -0.07879  -0.07459
 Alpha virt. eigenvalues --   -0.07254  -0.07131  -0.05650  -0.05584  -0.05383

 Mulliken charges:
               1
     1  C    0.048894
     2  C   -0.383561
     3  C   -0.442580
     4  C    0.087849
     5  C    0.088343
     6  C   -0.442254
     7  C   -0.382572
     8  C    0.049433
     9  C   -0.265400
    10  C    0.081137
    11  C   -0.582250
    12  C    0.562704
    13  C   -0.582557
    14  C    0.561610
    15  H    0.234709
    16  H    0.257338
    17  H    0.240647
    18  H    0.222363
    19  H    0.185743
    20  H    0.222358
    21  H    0.240744
    22  H    0.257343
    23  H    0.234740
    24  H    0.246373
    25  H    0.258846
 Sum of Mulliken charges =   1.00000

 Dipole moment (field-independent basis, Debye):
    X=              0.0014    Y=              0.1930    Z=              0.0040  Tot=              0.1930
 Quadrupole moment (field-independent basis, Debye-Ang):
   XX=            -30.7278   YY=            -56.2554   ZZ=            -84.2873
   XY=              0.0008   XZ=              0.0012   YZ=              0.2160

 Normal termination of Gaussian 16 at Thu Jul 28 13:51:56 2022.
