 Gaussian 16, Revision C.01,
 Gaussian 16:  ES64L-G16RevC.01  3-Jul-2019

 ---------------------------------------------------------------
 #n M062X/6-311++G(d,p) TD(NStates=1) EmpiricalDispersion=GD3 SP
 ---------------------------------------------------------------

 -------
 SP_-150
 -------
 Symbolic Z-matrix:
 Charge =  1 Multiplicity = 1

                         Standard orientation:
 ---------------------------------------------------------------------
 Center     Atomic      Atomic             Coordinates (Angstroms)
 Number     Number       Type             X           Y           Z
 ---------------------------------------------------------------------
      1          6           0       -2.493837   -1.361006   -0.003223
      2          6           0       -3.704072   -0.672856    0.002363
      3          6           0       -3.689873    0.712967    0.003362
      4          6           0       -2.466307    1.406968    0.000392
      5          6           0        2.464554    1.408119   -0.002282
      6          6           0        3.684049    0.714683    0.001840
      7          6           0        3.702470   -0.671137    0.002745
      8          6           0        2.491179   -1.359864    0.003968
      9          6           0        0.012442   -1.453368   -0.000938
     10          6           0       -0.000883    1.429199   -0.003098
     11          6           0       -1.259845   -0.677355   -0.002071
     12          6           0       -1.237114    0.730516    0.000895
     13          6           0        1.260439   -0.676768   -0.002894
     14          6           0        1.238426    0.731100   -0.002924
     15          1           0       -2.489178   -2.444212   -0.008777
     16          1           0       -4.639967   -1.212772    0.001303
     17          1           0       -4.612880    1.271272    0.004127
     18          1           0       -2.470751    2.489478    0.005920
     19          1           0       -0.000859    2.510272   -0.000276
     20          1           0        2.468772    2.490636    0.001040
     21          1           0        4.605418    1.273422   -0.000250
     22          1           0        4.636416   -1.210619    0.001563
     23          1           0        2.486745   -2.443075    0.000069
     24          1           0        0.002695   -2.146958   -0.856350
     25          1           0        0.003818   -2.144639    0.862829
 ---------------------------------------------------------------------

 SCF Done:  E(RM062X) =  -539.759913802     A.U. after   15 cycles

 Excitation energies and oscillator strengths:

 Excited State   1:      Singlet-A      2.8187 eV  439.87 nm  f=0.0285  <S**2>=0.000
      47 -> 48         0.70426
 This state for optimization and/or second-order correction.
 Total Energy, E(TD-HF/TD-DFT) =  -539.656330015
 Copying the excited state density for this state as the 1-particle RhoCI density.

 The electronic state is 1-A.
 Alpha  occ. eigenvalues --  -10.77663 -10.73324 -10.73172 -10.72460 -10.72453
 Alpha  occ. eigenvalues --  -10.71435 -10.71354 -10.71033 -10.71007 -10.70981
 Alpha  occ. eigenvalues --  -10.70029 -10.69971 -10.69658 -10.69584  -1.16427
 Alpha  occ. eigenvalues --   -1.12413  -1.06917  -1.05753  -1.01263  -1.00188
 Alpha  occ. eigenvalues --   -0.95762  -0.91061  -0.86418  -0.85890  -0.83814
 Alpha  occ. eigenvalues --   -0.78396  -0.76025  -0.74407  -0.69567  -0.69256
 Alpha  occ. eigenvalues --   -0.68516  -0.68210  -0.68122  -0.64699  -0.64253
 Alpha  occ. eigenvalues --   -0.63101  -0.61892  -0.59986  -0.59638  -0.59107
 Alpha  occ. eigenvalues --   -0.56903  -0.55242  -0.54836  -0.52417  -0.46589
 Alpha  occ. eigenvalues --   -0.46057  -0.44478
 Alpha virt. eigenvalues --   -0.26083  -0.14697  -0.14105  -0.12805  -0.11178
 Alpha virt. eigenvalues --   -0.10085  -0.09226  -0.07983  -0.07965  -0.07474
 Alpha virt. eigenvalues --   -0.07205  -0.07147  -0.05644  -0.05582  -0.05337

 Mulliken charges:
               1
     1  C    0.093426
     2  C   -0.400455
     3  C   -0.439231
     4  C    0.017021
     5  C    0.014913
     6  C   -0.440752
     7  C   -0.408450
     8  C    0.088381
     9  C   -0.329933
    10  C    0.092089
    11  C   -0.632028
    12  C    0.682149
    13  C   -0.645207
    14  C    0.689320
    15  H    0.237102
    16  H    0.256624
    17  H    0.248439
    18  H    0.222246
    19  H    0.190115
    20  H    0.222146
    21  H    0.247601
    22  H    0.256221
    23  H    0.237336
    24  H    0.249478
    25  H    0.251448
 Sum of Mulliken charges =   1.00000

 Dipole moment (field-independent basis, Debye):
    X=             -0.0145    Y=              0.1884    Z=              0.0008  Tot=              0.1889
 Quadrupole moment (field-independent basis, Debye-Ang):
   XX=            -31.0728   YY=            -56.2621   ZZ=            -84.1580
   XY=             -0.0081   XZ=             -0.0135   YZ=              0.0261

 Normal termination of Gaussian 16 at Thu Jul 28 12:53:37 2022.
