 Gaussian 16, Revision C.01,
 Gaussian 16:  ES64L-G16RevC.01  3-Jul-2019

 ---------------------------------------------------------------
 #n M062X/6-311++G(d,p) TD(NStates=1) EmpiricalDispersion=GD3 SP
 ---------------------------------------------------------------

 ------
 SP_-50
 ------
 Symbolic Z-matrix:
 Charge =  1 Multiplicity = 1

                         Standard orientation:
 ---------------------------------------------------------------------
 Center     Atomic      Atomic             Coordinates (Angstroms)
 Number     Number       Type             X           Y           Z
 ---------------------------------------------------------------------
      1          6           0        1.360496    0.001360    2.492055
      2          6           0        0.672105    0.010168    3.708558
      3          6           0       -0.713765    0.010514    3.696261
      4          6           0       -1.407624   -0.003580    2.472256
      5          6           0       -1.407624   -0.003580   -2.472256
      6          6           0       -0.713765    0.010514   -3.696261
      7          6           0        0.672105    0.010168   -3.708558
      8          6           0        1.360496    0.001360   -2.492055
      9          6           0        1.453386   -0.004408    0.000000
     10          6           0       -1.429352   -0.012189   -0.000000
     11          6           0        0.677003   -0.009976    1.254405
     12          6           0       -0.730867   -0.003936    1.238671
     13          6           0        0.677003   -0.009976   -1.254405
     14          6           0       -0.730867   -0.003936   -1.238671
     15          1           0        2.443586   -0.017672    2.487621
     16          1           0        1.211785    0.005619    4.642503
     17          1           0       -1.272328    0.007930    4.608812
     18          1           0       -2.490030    0.014246    2.476400
     19          1           0       -2.510370   -0.000776   -0.000000
     20          1           0       -2.490030    0.014246   -2.476400
     21          1           0       -1.272328    0.007930   -4.608812
     22          1           0        1.211785    0.005619   -4.642503
     23          1           0        2.443586   -0.017672   -2.487621
     24          1           0        2.138418   -0.846804    0.000000
     25          1           0        2.153547    0.872300    0.000000
 ---------------------------------------------------------------------

 SCF Done:  E(RM062X) =  -539.758719364     A.U. after   15 cycles

 Excitation energies and oscillator strengths:

 Excited State   1:      Singlet-A'     2.8051 eV  441.99 nm  f=0.0279  <S**2>=0.000
      47 -> 48         0.70427
 This state for optimization and/or second-order correction.
 Total Energy, E(TD-HF/TD-DFT) =  -539.655633020
 Copying the excited state density for this state as the 1-particle RhoCI density.

 The electronic state is 1-A'.
 Alpha  occ. eigenvalues --  -10.77658 -10.73274 -10.73273 -10.72521 -10.72519
 Alpha  occ. eigenvalues --  -10.71474 -10.71474 -10.71068 -10.71068 -10.70981
 Alpha  occ. eigenvalues --  -10.70085 -10.70085 -10.69597 -10.69597  -1.16378
 Alpha  occ. eigenvalues --   -1.12253  -1.06837  -1.05796  -1.01120  -1.00198
 Alpha  occ. eigenvalues --   -0.95705  -0.91074  -0.86409  -0.85866  -0.83806
 Alpha  occ. eigenvalues --   -0.78390  -0.76010  -0.74376  -0.69576  -0.69307
 Alpha  occ. eigenvalues --   -0.68593  -0.68245  -0.68134  -0.64583  -0.64151
 Alpha  occ. eigenvalues --   -0.63168  -0.62001  -0.59921  -0.59522  -0.59144
 Alpha  occ. eigenvalues --   -0.56924  -0.55262  -0.54901  -0.52356  -0.46492
 Alpha  occ. eigenvalues --   -0.46046  -0.44406
 Alpha virt. eigenvalues --   -0.26071  -0.14789  -0.14126  -0.12902  -0.11177
 Alpha virt. eigenvalues --   -0.10081  -0.09214  -0.08004  -0.07932  -0.07469
 Alpha virt. eigenvalues --   -0.07217  -0.07146  -0.05646  -0.05582  -0.05353

 Mulliken charges:
               1
     1  C    0.079575
     2  C   -0.399135
     3  C   -0.441713
     4  C    0.037532
     5  C    0.037532
     6  C   -0.441713
     7  C   -0.399135
     8  C    0.079575
     9  C   -0.302875
    10  C    0.094423
    11  C   -0.631383
    12  C    0.652322
    13  C   -0.631383
    14  C    0.652322
    15  H    0.236509
    16  H    0.256790
    17  H    0.245346
    18  H    0.222566
    19  H    0.188775
    20  H    0.222566
    21  H    0.245346
    22  H    0.256790
    23  H    0.236509
    24  H    0.248719
    25  H    0.254144
 Sum of Mulliken charges =   1.00000

 Dipole moment (field-independent basis, Debye):
    X=             -0.1909    Y=              0.0009    Z=             -0.0000  Tot=              0.1909
 Quadrupole moment (field-independent basis, Debye-Ang):
   XX=            -56.2606   YY=            -84.2066   ZZ=            -30.9422
   XY=             -0.0963   XZ=              0.0000   YZ=              0.0000

 Normal termination of Gaussian 16 at Thu Jul 28 14:28:55 2022.
