 Gaussian 16, Revision C.01,
 Gaussian 16:  ES64L-G16RevC.01  3-Jul-2019

 ---------------------------------------------------------------
 #n M062X/6-311++G(d,p) TD(NStates=1) EmpiricalDispersion=GD3 SP
 ---------------------------------------------------------------

 ----
 SP_0
 ----
 Symbolic Z-matrix:
 Charge =  1 Multiplicity = 1

                         Standard orientation:
 ---------------------------------------------------------------------
 Center     Atomic      Atomic             Coordinates (Angstroms)
 Number     Number       Type             X           Y           Z
 ---------------------------------------------------------------------
      1          6           0       -2.491037   -1.360286    0.003989
      2          6           0       -3.711654   -0.671779    0.015354
      3          6           0       -3.700874    0.714159    0.015374
      4          6           0       -2.476320    1.408056   -0.006071
      5          6           0        2.477292    1.407407   -0.004614
      6          6           0        3.704048    0.713207    0.016201
      7          6           0        3.712513   -0.672720    0.015137
      8          6           0        2.492474   -1.360867    0.000057
      9          6           0       -0.006791   -1.453406   -0.006707
     10          6           0        0.000493    1.429555   -0.018255
     11          6           0       -1.250740   -0.676764   -0.015187
     12          6           0       -1.239624    0.731117   -0.006926
     13          6           0        1.250420   -0.677088   -0.014750
     14          6           0        1.238918    0.730774   -0.004847
     15          1           0       -2.486736   -2.443226   -0.024124
     16          1           0       -4.644418   -1.211317    0.008491
     17          1           0       -4.606550    1.272904    0.010736
     18          1           0       -2.480281    2.490326    0.020084
     19          1           0        0.000480    2.510500   -0.001118
     20          1           0        2.481369    2.489661    0.022743
     21          1           0        4.610624    1.271701    0.013105
     22          1           0        4.646339   -1.212496    0.008336
     23          1           0        2.488058   -2.443794   -0.028959
     24          1           0       -0.001485   -2.133216   -0.840398
     25          1           0       -0.002098   -2.159237    0.878578
 ---------------------------------------------------------------------

 SCF Done:  E(RM062X) =  -539.757009863     A.U. after   15 cycles

 Excitation energies and oscillator strengths:

 Excited State   1:      Singlet-A      2.7948 eV  443.62 nm  f=0.0275  <S**2>=0.000
      47 -> 48         0.70427
 This state for optimization and/or second-order correction.
 Total Energy, E(TD-HF/TD-DFT) =  -539.654301305
 Copying the excited state density for this state as the 1-particle RhoCI density.

 The electronic state is 1-A.
 Alpha  occ. eigenvalues --  -10.77656 -10.73333 -10.73250 -10.72566 -10.72562
 Alpha  occ. eigenvalues --  -10.71549 -10.71505 -10.71107 -10.71092 -10.70980
 Alpha  occ. eigenvalues --  -10.70159 -10.70128 -10.69603 -10.69562  -1.16348
 Alpha  occ. eigenvalues --   -1.12147  -1.06786  -1.05828  -1.01035  -1.00190
 Alpha  occ. eigenvalues --   -0.95667  -0.91083  -0.86408  -0.85848  -0.83801
 Alpha  occ. eigenvalues --   -0.78390  -0.75998  -0.74354  -0.69593  -0.69352
 Alpha  occ. eigenvalues --   -0.68668  -0.68263  -0.68112  -0.64508  -0.64086
 Alpha  occ. eigenvalues --   -0.63206  -0.62063  -0.59873  -0.59441  -0.59168
 Alpha  occ. eigenvalues --   -0.56942  -0.55289  -0.54918  -0.52315  -0.46441
 Alpha  occ. eigenvalues --   -0.46024  -0.44355
 Alpha virt. eigenvalues --   -0.26065  -0.14856  -0.14143  -0.12970  -0.11177
 Alpha virt. eigenvalues --   -0.10079  -0.09207  -0.08021  -0.07909  -0.07465
 Alpha virt. eigenvalues --   -0.07229  -0.07142  -0.05648  -0.05583  -0.05365

 Mulliken charges:
               1
     1  C    0.066560
     2  C   -0.396704
     3  C   -0.443416
     4  C    0.057318
     5  C    0.059447
     6  C   -0.441841
     7  C   -0.391134
     8  C    0.069432
     9  C   -0.283741
    10  C    0.092647
    11  C   -0.615353
    12  C    0.618706
    13  C   -0.614361
    14  C    0.612980
    15  H    0.235756
    16  H    0.256989
    17  H    0.243230
    18  H    0.222635
    19  H    0.187649
    20  H    0.222627
    21  H    0.243770
    22  H    0.257087
    23  H    0.235825
    24  H    0.247998
    25  H    0.255895
 Sum of Mulliken charges =   1.00000

 Dipole moment (field-independent basis, Debye):
    X=              0.0082    Y=              0.1920    Z=              0.0015  Tot=              0.1922
 Quadrupole moment (field-independent basis, Debye-Ang):
   XX=            -30.8555   YY=            -56.2587   ZZ=            -84.2389
   XY=              0.0046   XZ=              0.0074   YZ=              0.1433

 Normal termination of Gaussian 16 at Thu Jul 28 15:17:30 2022.
