 Gaussian 16, Revision C.01,
 Gaussian 16:  ES64L-G16RevC.01  3-Jul-2019

 ---------------------------------------------------------------
 #n M062X/6-311++G(d,p) TD(NStates=1) EmpiricalDispersion=GD3 SP
 ---------------------------------------------------------------

 ----
 SP_0
 ----
 Symbolic Z-matrix:
 Charge =  1 Multiplicity = 1

                         Standard orientation:
 ---------------------------------------------------------------------
 Center     Atomic      Atomic             Coordinates (Angstroms)
 Number     Number       Type             X           Y           Z
 ---------------------------------------------------------------------
      1          6           0        2.494016   -1.360812    0.003314
      2          6           0        3.693067   -0.672559    0.012788
      3          6           0        3.669686    0.713346    0.012808
      4          6           0        2.452172    1.407421   -0.005061
      5          6           0       -2.451390    1.407924   -0.003844
      6          6           0       -3.667036    0.714110    0.013503
      7          6           0       -3.692324   -0.671780    0.012622
      8          6           0       -2.492795   -1.360252    0.000056
      9          6           0       -0.005651   -1.453395   -0.005586
     10          6           0        0.000390    1.429443   -0.015213
     11          6           0        1.271481   -0.677100   -0.012667
     12          6           0        1.235667    0.730782   -0.005775
     13          6           0       -1.271754   -0.676837   -0.012281
     14          6           0       -1.236274    0.731023   -0.004036
     15          1           0        2.489190   -2.443835   -0.020114
     16          1           0        4.630381   -1.212327    0.007063
     17          1           0        4.611518    1.271843    0.008928
     18          1           0        2.456932    2.489767    0.016735
     19          1           0        0.000379    2.510428   -0.000932
     20          1           0       -2.456042    2.490260    0.018954
     21          1           0       -4.608131    1.272790    0.010937
     22          1           0       -4.628751   -1.211352    0.006958
     23          1           0       -2.488079   -2.443268   -0.024124
     24          1           0       -0.001209   -2.156934    0.875428
     25          1           0       -0.001721   -2.135250   -0.843608
 ---------------------------------------------------------------------

 SCF Done:  E(RM062X) =  -539.758946540     A.U. after   15 cycles

 Excitation energies and oscillator strengths:

 Excited State   1:      Singlet-A      2.8396 eV  436.63 nm  f=0.0296  <S**2>=0.000
      47 -> 48         0.70424
 This state for optimization and/or second-order correction.
 Total Energy, E(TD-HF/TD-DFT) =  -539.654593278
 Copying the excited state density for this state as the 1-particle RhoCI density.

 The electronic state is 1-A.
 Alpha  occ. eigenvalues --  -10.77678 -10.73239 -10.73170 -10.72337 -10.72333
 Alpha  occ. eigenvalues --  -10.71258 -10.71221 -10.70973 -10.70934 -10.70923
 Alpha  occ. eigenvalues --  -10.69850 -10.69823 -10.69694 -10.69660  -1.16530
 Alpha  occ. eigenvalues --   -1.12728  -1.07089  -1.05644  -1.01582  -1.00135
 Alpha  occ. eigenvalues --   -0.95882  -0.91029  -0.86436  -0.85949  -0.83826
 Alpha  occ. eigenvalues --   -0.78427  -0.76039  -0.74470  -0.69563  -0.69224
 Alpha  occ. eigenvalues --   -0.68506  -0.68095  -0.67931  -0.64937  -0.64454
 Alpha  occ. eigenvalues --   -0.62889  -0.61691  -0.60076  -0.59868  -0.59018
 Alpha  occ. eigenvalues --   -0.56872  -0.55150  -0.54733  -0.52541  -0.46823
 Alpha  occ. eigenvalues --   -0.46030  -0.44608
 Alpha virt. eigenvalues --   -0.26118  -0.14549  -0.14068  -0.12626  -0.11182
 Alpha virt. eigenvalues --   -0.10095  -0.09249  -0.08041  -0.07945  -0.07484
 Alpha virt. eigenvalues --   -0.07215  -0.07119  -0.05639  -0.05581  -0.05310

 Mulliken charges:
               1
     1  C    0.092886
     2  C   -0.414575
     3  C   -0.441895
     4  C    0.042608
     5  C    0.043570
     6  C   -0.442201
     7  C   -0.417301
     8  C    0.091227
     9  C   -0.336625
    10  C    0.100346
    11  C   -0.583604
    12  C    0.620191
    13  C   -0.593294
    14  C    0.620746
    15  H    0.236208
    16  H    0.255946
    17  H    0.253086
    18  H    0.220678
    19  H    0.190787
    20  H    0.220572
    21  H    0.252804
    22  H    0.255633
    23  H    0.236513
    24  H    0.250834
    25  H    0.244860
 Sum of Mulliken charges =   1.00000

 Dipole moment (field-independent basis, Debye):
    X=              0.0064    Y=              0.1817    Z=             -0.0009  Tot=              0.1818
 Quadrupole moment (field-independent basis, Debye-Ang):
   XX=            -31.3330   YY=            -56.2626   ZZ=            -84.0613
   XY=              0.0035   XZ=             -0.0061   YZ=              0.1192

 Normal termination of Gaussian 16 at Thu Jul 28 15:00:00 2022.
