 Gaussian 16, Revision C.01,
 Gaussian 16:  ES64L-G16RevC.01  3-Jul-2019

 ---------------------------------------------------------------
 #n M062X/6-311++G(d,p) TD(NStates=1) EmpiricalDispersion=GD3 SP
 ---------------------------------------------------------------

 ------
 SP_-25
 ------
 Symbolic Z-matrix:
 Charge =  1 Multiplicity = 1

                         Standard orientation:
 ---------------------------------------------------------------------
 Center     Atomic      Atomic             Coordinates (Angstroms)
 Number     Number       Type             X           Y           Z
 ---------------------------------------------------------------------
      1          6           0        1.360447    0.000680    2.492355
      2          6           0        0.672018    0.005084    3.705033
      3          6           0       -0.713814    0.005257    3.690061
      4          6           0       -1.407560   -0.001790    2.467706
      5          6           0       -1.407560   -0.001790   -2.467706
      6          6           0       -0.713814    0.005257   -3.690061
      7          6           0        0.672018    0.005084   -3.705033
      8          6           0        1.360447    0.000680   -2.492355
      9          6           0        1.453373   -0.002204    0.000000
     10          6           0       -1.429230   -0.006095   -0.000000
     11          6           0        0.677050   -0.004988    1.258230
     12          6           0       -0.730820   -0.001968    1.238071
     13          6           0        0.677050   -0.004988   -1.258230
     14          6           0       -0.730820   -0.001968   -1.238071
     15          1           0        2.443632   -0.008836    2.487846
     16          1           0        1.211713    0.002810    4.639628
     17          1           0       -1.272344    0.003965    4.609037
     18          1           0       -2.490052    0.007123    2.471975
     19          1           0       -2.510292   -0.000388   -0.000000
     20          1           0       -2.490052    0.007123   -2.471975
     21          1           0       -1.272344    0.003965   -4.609037
     22          1           0        1.211713    0.002810   -4.639628
     23          1           0        2.443632   -0.008836   -2.487846
     24          1           0        2.142054   -0.853202    0.000000
     25          1           0        2.149618    0.865951    0.000000
 ---------------------------------------------------------------------

 SCF Done:  E(RM062X) =  -539.759752504     A.U. after   15 cycles

 Excitation energies and oscillator strengths:

 Excited State   1:      Singlet-A'     2.8144 eV  440.53 nm  f=0.0283  <S**2>=0.000
      47 -> 48         0.70427
 This state for optimization and/or second-order correction.
 Total Energy, E(TD-HF/TD-DFT) =  -539.656323745
 Copying the excited state density for this state as the 1-particle RhoCI density.

 The electronic state is 1-A'.
 Alpha  occ. eigenvalues --  -10.77661 -10.73257 -10.73256 -10.72478 -10.72477
 Alpha  occ. eigenvalues --  -10.71421 -10.71421 -10.71036 -10.71036 -10.70981
 Alpha  occ. eigenvalues --  -10.70028 -10.70028 -10.69613 -10.69613  -1.16410
 Alpha  occ. eigenvalues --   -1.12360  -1.06890  -1.05764  -1.01214  -1.00195
 Alpha  occ. eigenvalues --   -0.95743  -0.91066  -0.86413  -0.85884  -0.83811
 Alpha  occ. eigenvalues --   -0.78394  -0.76020  -0.74397  -0.69566  -0.69271
 Alpha  occ. eigenvalues --   -0.68538  -0.68222  -0.68131  -0.64661  -0.64217
 Alpha  occ. eigenvalues --   -0.63121  -0.61935  -0.59964  -0.59601  -0.59119
 Alpha  occ. eigenvalues --   -0.56910  -0.55239  -0.54873  -0.52397  -0.46555
 Alpha  occ. eigenvalues --   -0.46056  -0.44455
 Alpha virt. eigenvalues --   -0.26079  -0.14726  -0.14112  -0.12837  -0.11178
 Alpha virt. eigenvalues --   -0.10083  -0.09222  -0.07990  -0.07954  -0.07472
 Alpha virt. eigenvalues --   -0.07207  -0.07149  -0.05644  -0.05582  -0.05342

 Mulliken charges:
               1
     1  C    0.088064
     2  C   -0.402895
     3  C   -0.440453
     4  C    0.021063
     5  C    0.021063
     6  C   -0.440453
     7  C   -0.402895
     8  C    0.088064
     9  C   -0.322086
    10  C    0.092889
    11  C   -0.639056
    12  C    0.679125
    13  C   -0.639056
    14  C    0.679125
    15  H    0.237068
    16  H    0.256538
    17  H    0.247144
    18  H    0.222355
    19  H    0.189719
    20  H    0.222355
    21  H    0.247144
    22  H    0.256538
    23  H    0.237068
    24  H    0.249448
    25  H    0.252124
 Sum of Mulliken charges =   1.00000

 Dipole moment (field-independent basis, Debye):
    X=             -0.1894    Y=              0.0003    Z=              0.0000  Tot=              0.1894
 Quadrupole moment (field-independent basis, Debye-Ang):
   XX=            -56.2619   YY=            -84.1742   ZZ=            -31.0291
   XY=             -0.0482   XZ=             -0.0000   YZ=             -0.0000

 Normal termination of Gaussian 16 at Thu Jul 28 14:48:14 2022.
