 Gaussian 16, Revision C.01,
 Gaussian 16:  ES64L-G16RevC.01  3-Jul-2019

 ---------------------------------------------------------------
 #n M062X/6-311++G(d,p) TD(NStates=1) EmpiricalDispersion=GD3 SP
 ---------------------------------------------------------------

 -------
 SP_-125
 -------
 Symbolic Z-matrix:
 Charge =  1 Multiplicity = 1

                         Standard orientation:
 ---------------------------------------------------------------------
 Center     Atomic      Atomic             Coordinates (Angstroms)
 Number     Number       Type             X           Y           Z
 ---------------------------------------------------------------------
      1          6           0       -2.491964   -1.360772    0.001403
      2          6           0       -3.714060   -0.672578    0.017741
      3          6           0       -3.706354    0.713393    0.018598
      4          6           0       -2.479325    1.407638   -0.005912
      5          6           0        2.478837    1.407965   -0.006640
      6          6           0        3.704768    0.713870    0.018185
      7          6           0        3.713632   -0.672107    0.017850
      8          6           0        2.491247   -1.360486    0.003370
      9          6           0        0.003396   -1.453423   -0.007669
     10          6           0       -0.000248    1.429687   -0.021341
     11          6           0       -1.248587   -0.676958   -0.017345
     12          6           0       -1.239395    0.730910   -0.006375
     13          6           0        1.248748   -0.676795   -0.017563
     14          6           0        1.239747    0.731084   -0.007414
     15          1           0       -2.487614   -2.443600   -0.032120
     16          1           0       -4.647295   -1.212279    0.009798
     17          1           0       -4.609493    1.271984    0.014457
     18          1           0       -2.483310    2.489802    0.025575
     19          1           0       -0.000241    2.510585   -0.001376
     20          1           0        2.482765    2.490139    0.024245
     21          1           0        4.607456    1.272588    0.013274
     22          1           0        4.646336   -1.211689    0.009877
     23          1           0        2.486954   -2.443321   -0.029701
     24          1           0        0.000744   -2.133978   -0.837177
     25          1           0        0.001050   -2.158791    0.881814
 ---------------------------------------------------------------------

 SCF Done:  E(RM062X) =  -539.756160218     A.U. after   15 cycles

 Excitation energies and oscillator strengths:

 Excited State   1:      Singlet-A      2.7895 eV  444.47 nm  f=0.0273  <S**2>=0.000
      47 -> 48         0.70427
 This state for optimization and/or second-order correction.
 Total Energy, E(TD-HF/TD-DFT) =  -539.653649552
 Copying the excited state density for this state as the 1-particle RhoCI density.

 The electronic state is 1-A.
 Alpha  occ. eigenvalues --  -10.77655 -10.73322 -10.73281 -10.72588 -10.72585
 Alpha  occ. eigenvalues --  -10.71564 -10.71542 -10.71120 -10.71112 -10.70982
 Alpha  occ. eigenvalues --  -10.70180 -10.70165 -10.69586 -10.69566  -1.16333
 Alpha  occ. eigenvalues --   -1.12093  -1.06762  -1.05840  -1.00996  -1.00183
 Alpha  occ. eigenvalues --   -0.95647  -0.91086  -0.86405  -0.85841  -0.83798
 Alpha  occ. eigenvalues --   -0.78390  -0.75991  -0.74343  -0.69598  -0.69379
 Alpha  occ. eigenvalues --   -0.68702  -0.68269  -0.68105  -0.64471  -0.64052
 Alpha  occ. eigenvalues --   -0.63219  -0.62096  -0.59848  -0.59401  -0.59179
 Alpha  occ. eigenvalues --   -0.56951  -0.55296  -0.54932  -0.52295  -0.46421
 Alpha  occ. eigenvalues --   -0.46008  -0.44329
 Alpha virt. eigenvalues --   -0.26062  -0.14891  -0.14151  -0.13005  -0.11177
 Alpha virt. eigenvalues --   -0.10078  -0.09203  -0.08029  -0.07900  -0.07463
 Alpha virt. eigenvalues --   -0.07239  -0.07137  -0.05648  -0.05583  -0.05370

 Mulliken charges:
               1
     1  C    0.062731
     2  C   -0.389153
     3  C   -0.442375
     4  C    0.069768
     5  C    0.068572
     6  C   -0.443233
     7  C   -0.392023
     8  C    0.061274
     9  C   -0.276639
    10  C    0.089997
    11  C   -0.604973
    12  C    0.595484
    13  C   -0.604928
    14  C    0.598501
    15  H    0.235451
    16  H    0.257169
    17  H    0.242705
    18  H    0.222600
    19  H    0.187012
    20  H    0.222609
    21  H    0.242427
    22  H    0.257131
    23  H    0.235397
    24  H    0.247335
    25  H    0.257161
 Sum of Mulliken charges =   1.00000

 Dipole moment (field-independent basis, Debye):
    X=             -0.0041    Y=              0.1924    Z=              0.0027  Tot=              0.1925
 Quadrupole moment (field-independent basis, Debye-Ang):
   XX=            -30.8130   YY=            -56.2579   ZZ=            -84.2552
   XY=             -0.0023   XZ=             -0.0037   YZ=              0.1690

 Normal termination of Gaussian 16 at Thu Jul 28 13:26:21 2022.
