 Gaussian 16, Revision C.01,
 Gaussian 16:  ES64L-G16RevC.01  3-Jul-2019

 ---------------------------------------------------------------
 #n M062X/6-311++G(d,p) TD(NStates=1) EmpiricalDispersion=GD3 SP
 ---------------------------------------------------------------

 -----
 SP_25
 -----
 Symbolic Z-matrix:
 Charge =  1 Multiplicity = 1

                         Standard orientation:
 ---------------------------------------------------------------------
 Center     Atomic      Atomic             Coordinates (Angstroms)
 Number     Number       Type             X           Y           Z
 ---------------------------------------------------------------------
      1          6           0        2.493772   -1.360700    0.002669
      2          6           0        3.692918   -0.672403    0.012757
      3          6           0        3.669156    0.713499    0.012942
      4          6           0        2.452015    1.407522   -0.004826
      5          6           0       -2.451547    1.407823   -0.004096
      6          6           0       -3.667566    0.713958    0.013359
      7          6           0       -3.692473   -0.671936    0.012657
      8          6           0       -2.493039   -1.360364    0.000714
      9          6           0       -0.003391   -1.453396   -0.005556
     10          6           0        0.000234    1.429443   -0.015222
     11          6           0        1.271536   -0.677048   -0.012588
     12          6           0        1.235789    0.730830   -0.005433
     13          6           0       -1.271699   -0.676890   -0.012357
     14          6           0       -1.236153    0.730975   -0.004389
     15          1           0        2.488967   -2.443722   -0.020904
     16          1           0        4.630054   -1.212132    0.007047
     17          1           0        4.610841    1.272033    0.009322
     18          1           0        2.456755    2.489866    0.017164
     19          1           0        0.000227    2.510429   -0.000947
     20          1           0       -2.456220    2.490161    0.018496
     21          1           0       -4.608808    1.272601    0.010527
     22          1           0       -4.629077   -1.211547    0.006984
     23          1           0       -2.488300   -2.443381   -0.023311
     24          1           0       -0.000725   -2.156380    0.875443
     25          1           0       -0.001033   -2.135805   -0.843604
 ---------------------------------------------------------------------

 SCF Done:  E(RM062X) =  -539.758987986     A.U. after   15 cycles

 Excitation energies and oscillator strengths:

 Excited State   1:      Singlet-A      2.8396 eV  436.62 nm  f=0.0296  <S**2>=0.000
      47 -> 48         0.70424
 This state for optimization and/or second-order correction.
 Total Energy, E(TD-HF/TD-DFT) =  -539.654633959
 Copying the excited state density for this state as the 1-particle RhoCI density.

 The electronic state is 1-A.
 Alpha  occ. eigenvalues --  -10.77678 -10.73226 -10.73184 -10.72336 -10.72333
 Alpha  occ. eigenvalues --  -10.71251 -10.71229 -10.70973 -10.70932 -10.70925
 Alpha  occ. eigenvalues --  -10.69845 -10.69829 -10.69687 -10.69667  -1.16530
 Alpha  occ. eigenvalues --   -1.12728  -1.07089  -1.05643  -1.01582  -1.00135
 Alpha  occ. eigenvalues --   -0.95882  -0.91029  -0.86436  -0.85949  -0.83826
 Alpha  occ. eigenvalues --   -0.78427  -0.76039  -0.74470  -0.69562  -0.69224
 Alpha  occ. eigenvalues --   -0.68505  -0.68095  -0.67932  -0.64937  -0.64454
 Alpha  occ. eigenvalues --   -0.62888  -0.61693  -0.60076  -0.59868  -0.59018
 Alpha  occ. eigenvalues --   -0.56872  -0.55148  -0.54736  -0.52541  -0.46823
 Alpha  occ. eigenvalues --   -0.46030  -0.44608
 Alpha virt. eigenvalues --   -0.26118  -0.14549  -0.14068  -0.12626  -0.11182
 Alpha virt. eigenvalues --   -0.10095  -0.09249  -0.08040  -0.07945  -0.07484
 Alpha virt. eigenvalues --   -0.07215  -0.07118  -0.05639  -0.05581  -0.05310

 Mulliken charges:
               1
     1  C    0.092626
     2  C   -0.415140
     3  C   -0.441973
     4  C    0.042855
     5  C    0.043432
     6  C   -0.442157
     7  C   -0.416776
     8  C    0.091625
     9  C   -0.336659
    10  C    0.100379
    11  C   -0.585626
    12  C    0.620294
    13  C   -0.591442
    14  C    0.620627
    15  H    0.236270
    16  H    0.255883
    17  H    0.253030
    18  H    0.220657
    19  H    0.190782
    20  H    0.220594
    21  H    0.252861
    22  H    0.255695
    23  H    0.236453
    24  H    0.250901
    25  H    0.244810
 Sum of Mulliken charges =   1.00000

 Dipole moment (field-independent basis, Debye):
    X=              0.0038    Y=              0.1817    Z=             -0.0008  Tot=              0.1817
 Quadrupole moment (field-independent basis, Debye-Ang):
   XX=            -31.3330   YY=            -56.2627   ZZ=            -84.0613
   XY=              0.0021   XZ=             -0.0037   YZ=              0.1195

 Normal termination of Gaussian 16 at Thu Jul 28 15:22:31 2022.
