 Gaussian 16, Revision C.01,
 Gaussian 16:  ES64L-G16RevC.01  3-Jul-2019

 ---------------------------------------------------------------
 #n M062X/6-311++G(d,p) TD(NStates=1) EmpiricalDispersion=GD3 SP
 ---------------------------------------------------------------

 -------
 SP_-150
 -------
 Symbolic Z-matrix:
 Charge =  1 Multiplicity = 1

                         Standard orientation:
 ---------------------------------------------------------------------
 Center     Atomic      Atomic             Coordinates (Angstroms)
 Number     Number       Type             X           Y           Z
 ---------------------------------------------------------------------
      1          6           0       -2.491124   -1.360965    0.003403
      2          6           0       -3.720966   -0.672941    0.027933
      3          6           0       -3.718225    0.713259    0.028978
      4          6           0       -2.488263    1.408133   -0.009715
      5          6           0        2.488099    1.408244   -0.009958
      6          6           0        3.717697    0.713420    0.028841
      7          6           0        3.720825   -0.672784    0.027971
      8          6           0        2.490886   -1.360875    0.004060
      9          6           0        0.001133   -1.453501   -0.012113
     10          6           0       -0.000084    1.430419   -0.033506
     11          6           0       -1.240991   -0.676627   -0.027394
     12          6           0       -1.240713    0.731249   -0.010645
     13          6           0        1.241044   -0.676572   -0.027465
     14          6           0        1.240829    0.731310   -0.010991
     15          1           0       -2.486943   -2.443230   -0.049002
     16          1           0       -4.652724   -1.212516    0.015427
     17          1           0       -4.608364    1.272091    0.022002
     18          1           0       -2.491979    2.489782    0.039399
     19          1           0       -0.000082    2.511053   -0.002121
     20          1           0        2.491796    2.489898    0.038956
     21          1           0        4.607685    1.272297    0.021611
     22          1           0        4.652407   -1.212319    0.015455
     23          1           0        2.486724   -2.443143   -0.048195
     24          1           0        0.000250   -2.126737   -0.824303
     25          1           0        0.000352   -2.167790    0.894377
 ---------------------------------------------------------------------

 SCF Done:  E(RM062X) =  -539.750757456     A.U. after   15 cycles

 Excitation energies and oscillator strengths:

 Excited State   1:      Singlet-A      2.7655 eV  448.32 nm  f=0.0265  <S**2>=0.000
      47 -> 48         0.70427
 This state for optimization and/or second-order correction.
 Total Energy, E(TD-HF/TD-DFT) =  -539.649126070
 Copying the excited state density for this state as the 1-particle RhoCI density.

 The electronic state is 1-A.
 Alpha  occ. eigenvalues --  -10.77653 -10.73348 -10.73335 -10.72679 -10.72677
 Alpha  occ. eigenvalues --  -10.71665 -10.71657 -10.71183 -10.71181 -10.70978
 Alpha  occ. eigenvalues --  -10.70295 -10.70290 -10.69556 -10.69549  -1.16278
 Alpha  occ. eigenvalues --   -1.11878  -1.06673  -1.05890  -1.00871  -1.00121
 Alpha  occ. eigenvalues --   -0.95574  -0.91098  -0.86405  -0.85809  -0.83785
 Alpha  occ. eigenvalues --   -0.78401  -0.75959  -0.74299  -0.69649  -0.69507
 Alpha  occ. eigenvalues --   -0.68866  -0.68283  -0.68025  -0.64330  -0.63924
 Alpha  occ. eigenvalues --   -0.63250  -0.62215  -0.59739  -0.59235  -0.59217
 Alpha  occ. eigenvalues --   -0.56996  -0.55334  -0.54958  -0.52215  -0.46369
 Alpha  occ. eigenvalues --   -0.45909  -0.44220
 Alpha virt. eigenvalues --   -0.26057  -0.15046  -0.14186  -0.13150  -0.11178
 Alpha virt. eigenvalues --   -0.10076  -0.09188  -0.08067  -0.07859  -0.07455
 Alpha virt. eigenvalues --   -0.07270  -0.07123  -0.05652  -0.05586  -0.05395

 Mulliken charges:
               1
     1  C    0.037363
     2  C   -0.374499
     3  C   -0.441304
     4  C    0.103592
     5  C    0.103003
     6  C   -0.441661
     7  C   -0.375495
     8  C    0.036761
     9  C   -0.258849
    10  C    0.069693
    11  C   -0.558825
    12  C    0.531298
    13  C   -0.558312
    14  C    0.532448
    15  H    0.234081
    16  H    0.257478
    17  H    0.238899
    18  H    0.221837
    19  H    0.184496
    20  H    0.221843
    21  H    0.238796
    22  H    0.257481
    23  H    0.234037
    24  H    0.245178
    25  H    0.260663
 Sum of Mulliken charges =   1.00000

 Dipole moment (field-independent basis, Debye):
    X=             -0.0014    Y=              0.1930    Z=              0.0060  Tot=              0.1931
 Quadrupole moment (field-independent basis, Debye-Ang):
   XX=            -30.6449   YY=            -56.2526   ZZ=            -84.3193
   XY=             -0.0008   XZ=             -0.0012   YZ=              0.2639

 Normal termination of Gaussian 16 at Thu Jul 28 13:10:24 2022.
