 Gaussian 16, Revision C.01,
 Gaussian 16:  ES64L-G16RevC.01  3-Jul-2019

 ---------------------------------------------------------------
 #n M062X/6-311++G(d,p) TD(NStates=1) EmpiricalDispersion=GD3 SP
 ---------------------------------------------------------------

 -----
 SP_50
 -----
 Symbolic Z-matrix:
 Charge =  1 Multiplicity = 1

                         Standard orientation:
 ---------------------------------------------------------------------
 Center     Atomic      Atomic             Coordinates (Angstroms)
 Number     Number       Type             X           Y           Z
 ---------------------------------------------------------------------
      1          6           0        2.494346   -1.360922    0.004006
      2          6           0        3.687708   -0.672762    0.020393
      3          6           0        3.660122    0.713268    0.020760
      4          6           0        2.445265    1.407685   -0.007625
      5          6           0       -2.444646    1.408079   -0.006651
      6          6           0       -3.658000    0.713872    0.021317
      7          6           0       -3.687108   -0.672141    0.020264
      8          6           0       -2.493364   -1.360457    0.001404
      9          6           0       -0.004519   -1.453438   -0.008879
     10          6           0        0.000307    1.429840   -0.024354
     11          6           0        1.277245   -0.676923   -0.020111
     12          6           0        1.234826    0.730964   -0.008554
     13          6           0       -1.277465   -0.676714   -0.019798
     14          6           0       -1.235316    0.731147   -0.007161
     15          1           0        2.489417   -2.443640   -0.033767
     16          1           0        4.625908   -1.212464    0.011263
     17          1           0        4.611516    1.271894    0.015070
     18          1           0        2.450204    2.489753    0.027636
     19          1           0        0.000299    2.510682   -0.001515
     20          1           0       -2.449496    2.490133    0.029412
     21          1           0       -4.608808    1.272639    0.016684
     22          1           0       -4.624598   -1.211686    0.011184
     23          1           0       -2.488526   -2.443166   -0.036971
     24          1           0       -0.000961   -2.162807    0.884901
     25          1           0       -0.001371   -2.130330   -0.833964
 ---------------------------------------------------------------------

 SCF Done:  E(RM062X) =  -539.756578511     A.U. after   15 cycles

 Excitation energies and oscillator strengths:

 Excited State   1:      Singlet-A      2.8468 eV  435.52 nm  f=0.0301  <S**2>=0.000
      47 -> 48         0.70422
 This state for optimization and/or second-order correction.
 Total Energy, E(TD-HF/TD-DFT) =  -539.651960902
 Copying the excited state density for this state as the 1-particle RhoCI density.

 The electronic state is 1-A.
 Alpha  occ. eigenvalues --  -10.77688 -10.73214 -10.73158 -10.72279 -10.72275
 Alpha  occ. eigenvalues --  -10.71179 -10.71149 -10.70967 -10.70889 -10.70880
 Alpha  occ. eigenvalues --  -10.69769 -10.69748 -10.69722 -10.69695  -1.16585
 Alpha  occ. eigenvalues --   -1.12884  -1.07180  -1.05588  -1.01752  -1.00092
 Alpha  occ. eigenvalues --   -0.95943  -0.91011  -0.86449  -0.85979  -0.83831
 Alpha  occ. eigenvalues --   -0.78451  -0.76041  -0.74500  -0.69571  -0.69236
 Alpha  occ. eigenvalues --   -0.68529  -0.68022  -0.67799  -0.65055  -0.64556
 Alpha  occ. eigenvalues --   -0.62758  -0.61588  -0.60101  -0.59977  -0.58968
 Alpha  occ. eigenvalues --   -0.56861  -0.55105  -0.54662  -0.52604  -0.46950
 Alpha  occ. eigenvalues --   -0.46002  -0.44664
 Alpha virt. eigenvalues --   -0.26140  -0.14492  -0.14053  -0.12545  -0.11185
 Alpha virt. eigenvalues --   -0.10102  -0.09261  -0.08079  -0.07931  -0.07488
 Alpha virt. eigenvalues --   -0.07229  -0.07097  -0.05637  -0.05582  -0.05300

 Mulliken charges:
               1
     1  C    0.087069
     2  C   -0.415642
     3  C   -0.440490
     4  C    0.066742
     5  C    0.068698
     6  C   -0.440556
     7  C   -0.417625
     8  C    0.086439
     9  C   -0.349580
    10  C    0.091953
    11  C   -0.541999
    12  C    0.570860
    13  C   -0.549900
    14  C    0.570168
    15  H    0.235458
    16  H    0.255562
    17  H    0.255201
    18  H    0.219447
    19  H    0.190159
    20  H    0.219350
    21  H    0.255024
    22  H    0.255254
    23  H    0.235796
    24  H    0.251043
    25  H    0.241568
 Sum of Mulliken charges =   1.00000

 Dipole moment (field-independent basis, Debye):
    X=              0.0050    Y=              0.1771    Z=             -0.0021  Tot=              0.1772
 Quadrupole moment (field-independent basis, Debye-Ang):
   XX=            -31.4643   YY=            -56.2611   ZZ=            -84.0132
   XY=              0.0028   XZ=             -0.0048   YZ=              0.1907

 Normal termination of Gaussian 16 at Thu Jul 28 15:40:25 2022.
