 Gaussian 16, Revision C.01,
 Gaussian 16:  ES64L-G16RevC.01  3-Jul-2019

 ---------------------------------------------------------------
 #n M062X/6-311++G(d,p) TD(NStates=1) EmpiricalDispersion=GD3 SP
 ---------------------------------------------------------------

 -------
 SP_-125
 -------
 Symbolic Z-matrix:
 Charge =  1 Multiplicity = 1

                         Standard orientation:
 ---------------------------------------------------------------------
 Center     Atomic      Atomic             Coordinates (Angstroms)
 Number     Number       Type             X           Y           Z
 ---------------------------------------------------------------------
      1          6           0       -2.492777   -1.360795   -0.000587
      2          6           0       -3.708991   -0.672574    0.010068
      3          6           0       -3.697849    0.713292    0.010913
      4          6           0       -2.472739    1.407304   -0.002878
      5          6           0        2.471773    1.407944   -0.004336
      6          6           0        3.694674    0.714238    0.010085
      7          6           0        3.708126   -0.671635    0.010281
      8          6           0        2.491335   -1.360197    0.003341
      9          6           0        0.006789   -1.453386   -0.004317
     10          6           0       -0.000489    1.429351   -0.012217
     11          6           0       -1.254244   -0.677165   -0.009749
     12          6           0       -1.238316    0.730701   -0.002912
     13          6           0        1.254566   -0.676842   -0.010190
     14          6           0        1.239026    0.731033   -0.004993
     15          1           0       -2.488284   -2.443881   -0.020053
     16          1           0       -4.643467   -1.212374    0.005559
     17          1           0       -4.610848    1.271733    0.009094
     18          1           0       -2.476942    2.489704    0.015532
     19          1           0       -0.000475    2.510370   -0.000820
     20          1           0        2.475857    2.490356    0.012872
     21          1           0        4.606776    1.272924    0.006717
     22          1           0        4.641539   -1.211197    0.005708
     23          1           0        2.486960   -2.443292   -0.015222
     24          1           0        0.001479   -2.140081   -0.846789
     25          1           0        0.002092   -2.151883    0.872343
 ---------------------------------------------------------------------

 SCF Done:  E(RM062X) =  -539.758715357     A.U. after   15 cycles

 Excitation energies and oscillator strengths:

 Excited State   1:      Singlet-A      2.8051 eV  441.99 nm  f=0.0279  <S**2>=0.000
      47 -> 48         0.70427
 This state for optimization and/or second-order correction.
 Total Energy, E(TD-HF/TD-DFT) =  -539.655629481
 Copying the excited state density for this state as the 1-particle RhoCI density.

 The electronic state is 1-A.
 Alpha  occ. eigenvalues --  -10.77658 -10.73315 -10.73232 -10.72522 -10.72518
 Alpha  occ. eigenvalues --  -10.71496 -10.71451 -10.71075 -10.71060 -10.70982
 Alpha  occ. eigenvalues --  -10.70101 -10.70069 -10.69617 -10.69577  -1.16378
 Alpha  occ. eigenvalues --   -1.12253  -1.06837  -1.05797  -1.01120  -1.00197
 Alpha  occ. eigenvalues --   -0.95704  -0.91074  -0.86410  -0.85865  -0.83806
 Alpha  occ. eigenvalues --   -0.78390  -0.76010  -0.74375  -0.69576  -0.69306
 Alpha  occ. eigenvalues --   -0.68591  -0.68246  -0.68138  -0.64583  -0.64151
 Alpha  occ. eigenvalues --   -0.63170  -0.61998  -0.59922  -0.59521  -0.59145
 Alpha  occ. eigenvalues --   -0.56924  -0.55267  -0.54895  -0.52356  -0.46492
 Alpha  occ. eigenvalues --   -0.46046  -0.44406
 Alpha virt. eigenvalues --   -0.26071  -0.14788  -0.14127  -0.12902  -0.11177
 Alpha virt. eigenvalues --   -0.10081  -0.09214  -0.08004  -0.07932  -0.07469
 Alpha virt. eigenvalues --   -0.07218  -0.07145  -0.05646  -0.05582  -0.05353

 Mulliken charges:
               1
     1  C    0.080994
     2  C   -0.396480
     3  C   -0.441057
     4  C    0.038287
     5  C    0.036622
     6  C   -0.442334
     7  C   -0.401609
     8  C    0.078274
     9  C   -0.303187
    10  C    0.094346
    11  C   -0.629638
    12  C    0.649867
    13  C   -0.633055
    14  C    0.654853
    15  H    0.236498
    16  H    0.256864
    17  H    0.245599
    18  H    0.222572
    19  H    0.188776
    20  H    0.222558
    21  H    0.245091
    22  H    0.256719
    23  H    0.236510
    24  H    0.248579
    25  H    0.254352
 Sum of Mulliken charges =   1.00000

 Dipole moment (field-independent basis, Debye):
    X=             -0.0081    Y=              0.1908    Z=              0.0013  Tot=              0.1910
 Quadrupole moment (field-independent basis, Debye-Ang):
   XX=            -30.9425   YY=            -56.2606   ZZ=            -84.2066
   XY=             -0.0045   XZ=             -0.0074   YZ=              0.0974

 Normal termination of Gaussian 16 at Thu Jul 28 13:21:19 2022.
