 Gaussian 16, Revision C.01,
 Gaussian 16:  ES64L-G16RevC.01  3-Jul-2019

 ---------------------------------------------------------------
 #n M062X/6-311++G(d,p) TD(NStates=1) EmpiricalDispersion=GD3 SP
 ---------------------------------------------------------------

 ------
 SP_-75
 ------
 Symbolic Z-matrix:
 Charge =  1 Multiplicity = 1

                         Standard orientation:
 ---------------------------------------------------------------------
 Center     Atomic      Atomic             Coordinates (Angstroms)
 Number     Number       Type             X           Y           Z
 ---------------------------------------------------------------------
      1          6           0       -2.493382   -1.360747   -0.001943
      2          6           0       -3.701947   -0.672458   -0.000097
      3          6           0       -3.685450    0.713363    0.000400
      4          6           0       -2.463632    1.407226    0.000702
      5          6           0        2.462679    1.407850   -0.000756
      6          6           0        3.682272    0.714296   -0.000431
      7          6           0        3.701070   -0.671520    0.000110
      8          6           0        2.491930   -1.360116    0.001977
      9          6           0        0.006786   -1.453368    0.000091
     10          6           0       -0.000479    1.429189   -0.000027
     11          6           0       -1.261893   -0.677225    0.000232
     12          6           0       -1.237112    0.730647    0.001025
     13          6           0        1.262217   -0.676905   -0.000220
     14          6           0        1.237830    0.730961   -0.001058
     15          1           0       -2.488736   -2.443962   -0.002377
     16          1           0       -4.637723   -1.212276   -0.000055
     17          1           0       -4.611296    1.271765    0.001171
     18          1           0       -2.468088    2.489747    0.001287
     19          1           0       -0.000466    2.510266   -0.000045
     20          1           0        2.467011    2.490371   -0.001375
     21          1           0        4.607227    1.272932   -0.001220
     22          1           0        4.635783   -1.211102    0.000084
     23          1           0        2.487408   -2.443332    0.002446
     24          1           0        0.001467   -2.147450   -0.859556
     25          1           0        0.002080   -2.144123    0.859614
 ---------------------------------------------------------------------

 SCF Done:  E(RM062X) =  -539.760183348     A.U. after   15 cycles

 Excitation energies and oscillator strengths:

 Excited State   1:      Singlet-A      2.8228 eV  439.22 nm  f=0.0287  <S**2>=0.000
      47 -> 48         0.70426
 This state for optimization and/or second-order correction.
 Total Energy, E(TD-HF/TD-DFT) =  -539.656447424
 Copying the excited state density for this state as the 1-particle RhoCI density.

 The electronic state is 1-A.
 Alpha  occ. eigenvalues --  -10.77665 -10.73282 -10.73199 -10.72438 -10.72433
 Alpha  occ. eigenvalues --  -10.71391 -10.71346 -10.71012 -10.70998 -10.70979
 Alpha  occ. eigenvalues --  -10.69988 -10.69956 -10.69650 -10.69609  -1.16443
 Alpha  occ. eigenvalues --   -1.12466  -1.06945  -1.05732  -1.01313  -1.00184
 Alpha  occ. eigenvalues --   -0.95782  -0.91056  -0.86419  -0.85901  -0.83816
 Alpha  occ. eigenvalues --   -0.78400  -0.76028  -0.74418  -0.69562  -0.69245
 Alpha  occ. eigenvalues --   -0.68505  -0.68193  -0.68102  -0.64739  -0.64285
 Alpha  occ. eigenvalues --   -0.63067  -0.61864  -0.60004  -0.59679  -0.59093
 Alpha  occ. eigenvalues --   -0.56897  -0.55219  -0.54833  -0.52438  -0.46625
 Alpha  occ. eigenvalues --   -0.46056  -0.44501
 Alpha virt. eigenvalues --   -0.26088  -0.14669  -0.14098  -0.12773  -0.11179
 Alpha virt. eigenvalues --   -0.10086  -0.09230  -0.07983  -0.07970  -0.07476
 Alpha virt. eigenvalues --   -0.07203  -0.07146  -0.05643  -0.05581  -0.05332

 Mulliken charges:
               1
     1  C    0.094538
     2  C   -0.404616
     3  C   -0.439720
     4  C    0.015093
     5  C    0.014135
     6  C   -0.440437
     7  C   -0.408759
     8  C    0.091760
     9  C   -0.334097
    10  C    0.093158
    11  C   -0.632183
    12  C    0.684284
    13  C   -0.640474
    14  C    0.687824
    15  H    0.237199
    16  H    0.256428
    17  H    0.249107
    18  H    0.222045
    19  H    0.190408
    20  H    0.221975
    21  H    0.248668
    22  H    0.256183
    23  H    0.237364
    24  H    0.249884
    25  H    0.250235
 Sum of Mulliken charges =   1.00000

 Dipole moment (field-independent basis, Debye):
    X=             -0.0079    Y=              0.1876    Z=              0.0004  Tot=              0.1877
 Quadrupole moment (field-independent basis, Debye-Ang):
   XX=            -31.1161   YY=            -56.2626   ZZ=            -84.1419
   XY=             -0.0044   XZ=             -0.0074   YZ=              0.0011

 Normal termination of Gaussian 16 at Thu Jul 28 14:00:19 2022.
