 Gaussian 16, Revision C.01,
 Gaussian 16:  ES64L-G16RevC.01  3-Jul-2019

 ---------------------------------------------------------------
 #n M062X/6-311++G(d,p) TD(NStates=1) EmpiricalDispersion=GD3 SP
 ---------------------------------------------------------------

 ------
 SP_-75
 ------
 Symbolic Z-matrix:
 Charge =  1 Multiplicity = 1

                         Standard orientation:
 ---------------------------------------------------------------------
 Center     Atomic      Atomic             Coordinates (Angstroms)
 Number     Number       Type             X           Y           Z
 ---------------------------------------------------------------------
      1          6           0        1.360576    0.002039    2.491755
      2          6           0        0.672249    0.015251    3.712083
      3          6           0       -0.713684    0.015771    3.702461
      4          6           0       -1.407732   -0.005369    2.476806
      5          6           0       -1.407732   -0.005369   -2.476806
      6          6           0       -0.713684    0.015771   -3.702461
      7          6           0        0.672249    0.015251   -3.712083
      8          6           0        1.360576    0.002039   -2.491755
      9          6           0        1.453408   -0.006612   -0.000000
     10          6           0       -1.429555   -0.018282    0.000000
     11          6           0        0.676926   -0.014963    1.250580
     12          6           0       -0.730946   -0.005903    1.239271
     13          6           0        0.676926   -0.014963   -1.250580
     14          6           0       -0.730946   -0.005903   -1.239271
     15          1           0        2.443510   -0.026509    2.487396
     16          1           0        1.211906    0.008427    4.645378
     17          1           0       -1.272303    0.011895    4.608587
     18          1           0       -2.489994    0.021370    2.480825
     19          1           0       -2.510500   -0.001161    0.000000
     20          1           0       -2.489994    0.021370   -2.480825
     21          1           0       -1.272303    0.011895   -4.608587
     22          1           0        1.211906    0.008427   -4.645378
     23          1           0        2.443510   -0.026509   -2.487396
     24          1           0        2.134879   -0.840391   -0.000000
     25          1           0        2.157573    0.878630   -0.000000
 ---------------------------------------------------------------------

 SCF Done:  E(RM062X) =  -539.757132854     A.U. after   15 cycles

 Excitation energies and oscillator strengths:

 Excited State   1:      Singlet-A'     2.7949 eV  443.61 nm  f=0.0275  <S**2>=0.000
      47 -> 48         0.70427
 This state for optimization and/or second-order correction.
 Total Energy, E(TD-HF/TD-DFT) =  -539.654422317
 Copying the excited state density for this state as the 1-particle RhoCI density.

 The electronic state is 1-A'.
 Alpha  occ. eigenvalues --  -10.77656 -10.73292 -10.73291 -10.72565 -10.72563
 Alpha  occ. eigenvalues --  -10.71527 -10.71527 -10.71100 -10.71100 -10.70981
 Alpha  occ. eigenvalues --  -10.70143 -10.70143 -10.69583 -10.69583  -1.16348
 Alpha  occ. eigenvalues --   -1.12147  -1.06786  -1.05826  -1.01035  -1.00191
 Alpha  occ. eigenvalues --   -0.95667  -0.91082  -0.86406  -0.85849  -0.83801
 Alpha  occ. eigenvalues --   -0.78390  -0.75998  -0.74354  -0.69589  -0.69353
 Alpha  occ. eigenvalues --   -0.68665  -0.68263  -0.68117  -0.64508  -0.64085
 Alpha  occ. eigenvalues --   -0.63205  -0.62065  -0.59873  -0.59441  -0.59168
 Alpha  occ. eigenvalues --   -0.56942  -0.55284  -0.54924  -0.52315  -0.46441
 Alpha  occ. eigenvalues --   -0.46024  -0.44355
 Alpha virt. eigenvalues --   -0.26065  -0.14856  -0.14142  -0.12970  -0.11177
 Alpha virt. eigenvalues --   -0.10079  -0.09207  -0.08021  -0.07910  -0.07465
 Alpha virt. eigenvalues --   -0.07231  -0.07141  -0.05647  -0.05583  -0.05365

 Mulliken charges:
               1
     1  C    0.068194
     2  C   -0.393926
     3  C   -0.442671
     4  C    0.058633
     5  C    0.058633
     6  C   -0.442671
     7  C   -0.393926
     8  C    0.068194
     9  C   -0.284016
    10  C    0.092769
    11  C   -0.615095
    12  C    0.615723
    13  C   -0.615095
    14  C    0.615723
    15  H    0.235792
    16  H    0.257037
    17  H    0.243500
    18  H    0.222637
    19  H    0.187634
    20  H    0.222637
    21  H    0.243500
    22  H    0.257037
    23  H    0.235792
    24  H    0.247866
    25  H    0.256101
 Sum of Mulliken charges =   1.00000

 Dipole moment (field-independent basis, Debye):
    X=             -0.1920    Y=              0.0019    Z=              0.0000  Tot=              0.1920
 Quadrupole moment (field-independent basis, Debye-Ang):
   XX=            -56.2589   YY=            -84.2390   ZZ=            -30.8557
   XY=             -0.1444   XZ=             -0.0000   YZ=              0.0000

 Normal termination of Gaussian 16 at Thu Jul 28 14:09:35 2022.
