 Gaussian 16, Revision C.01,
 Gaussian 16:  ES64L-G16RevC.01  3-Jul-2019

 ---------------------------------------------------------------
 #n M062X/6-311++G(d,p) TD(NStates=1) EmpiricalDispersion=GD3 SP
 ---------------------------------------------------------------

 ----
 SP_0
 ----
 Symbolic Z-matrix:
 Charge =  1 Multiplicity = 1

                         Standard orientation:
 ---------------------------------------------------------------------
 Center     Atomic      Atomic             Coordinates (Angstroms)
 Number     Number       Type             X           Y           Z
 ---------------------------------------------------------------------
      1          6           0       -2.492114   -1.360345    0.001329
      2          6           0       -3.704888   -0.671862    0.005118
      3          6           0       -3.689532    0.713970    0.005124
      4          6           0       -2.467546    1.407665   -0.002024
      5          6           0        2.467866    1.407454   -0.001538
      6          6           0        3.690590    0.713657    0.005401
      7          6           0        3.705178   -0.672174    0.005047
      8          6           0        2.492596   -1.360550    0.000021
      9          6           0       -0.002262   -1.453373   -0.002235
     10          6           0        0.000161    1.429230   -0.006086
     11          6           0       -1.258284   -0.676996   -0.005064
     12          6           0       -1.238190    0.730874   -0.002310
     13          6           0        1.258176   -0.677103   -0.004915
     14          6           0        1.237952    0.730766   -0.001616
     15          1           0       -2.487625   -2.443530   -0.008043
     16          1           0       -4.639306   -1.211517    0.002829
     17          1           0       -4.608359    1.272540    0.003576
     18          1           0       -2.471795    2.490158    0.006694
     19          1           0        0.000157    2.510292   -0.000374
     20          1           0        2.472155    2.489945    0.007581
     21          1           0        4.609715    1.272147    0.004370
     22          1           0        4.639950   -1.211909    0.002781
     23          1           0        2.488067   -2.443733   -0.009652
     24          1           0       -0.000491   -2.141499   -0.853209
     25          1           0       -0.000695   -2.150173    0.865939
 ---------------------------------------------------------------------

 SCF Done:  E(RM062X) =  -539.759738988     A.U. after   15 cycles

 Excitation energies and oscillator strengths:

 Excited State   1:      Singlet-A      2.8144 eV  440.53 nm  f=0.0283  <S**2>=0.000
      47 -> 48         0.70427
 This state for optimization and/or second-order correction.
 Total Energy, E(TD-HF/TD-DFT) =  -539.656310450
 Copying the excited state density for this state as the 1-particle RhoCI density.

 The electronic state is 1-A.
 Alpha  occ. eigenvalues --  -10.77661 -10.73270 -10.73243 -10.72478 -10.72476
 Alpha  occ. eigenvalues --  -10.71428 -10.71413 -10.71038 -10.71034 -10.70980
 Alpha  occ. eigenvalues --  -10.70034 -10.70023 -10.69619 -10.69606  -1.16410
 Alpha  occ. eigenvalues --   -1.12360  -1.06890  -1.05764  -1.01214  -1.00195
 Alpha  occ. eigenvalues --   -0.95743  -0.91066  -0.86413  -0.85884  -0.83811
 Alpha  occ. eigenvalues --   -0.78394  -0.76020  -0.74397  -0.69567  -0.69271
 Alpha  occ. eigenvalues --   -0.68538  -0.68222  -0.68131  -0.64661  -0.64217
 Alpha  occ. eigenvalues --   -0.63122  -0.61934  -0.59964  -0.59601  -0.59119
 Alpha  occ. eigenvalues --   -0.56910  -0.55239  -0.54872  -0.52397  -0.46555
 Alpha  occ. eigenvalues --   -0.46056  -0.44455
 Alpha virt. eigenvalues --   -0.26079  -0.14726  -0.14112  -0.12837  -0.11178
 Alpha virt. eigenvalues --   -0.10083  -0.09222  -0.07990  -0.07954  -0.07472
 Alpha virt. eigenvalues --   -0.07207  -0.07149  -0.05644  -0.05582  -0.05342

 Mulliken charges:
               1
     1  C    0.087576
     2  C   -0.403659
     3  C   -0.440606
     4  C    0.020805
     5  C    0.021246
     6  C   -0.440283
     7  C   -0.402121
     8  C    0.088510
     9  C   -0.322076
    10  C    0.092861
    11  C   -0.640028
    12  C    0.679875
    13  C   -0.638037
    14  C    0.678445
    15  H    0.237083
    16  H    0.256505
    17  H    0.247065
    18  H    0.222348
    19  H    0.189720
    20  H    0.222361
    21  H    0.247223
    22  H    0.256570
    23  H    0.237054
    24  H    0.249502
    25  H    0.252062
 Sum of Mulliken charges =   1.00000

 Dipole moment (field-independent basis, Debye):
    X=              0.0027    Y=              0.1894    Z=              0.0002  Tot=              0.1894
 Quadrupole moment (field-independent basis, Debye-Ang):
   XX=            -31.0291   YY=            -56.2619   ZZ=            -84.1742
   XY=              0.0015   XZ=              0.0025   YZ=              0.0478

 Normal termination of Gaussian 16 at Thu Jul 28 15:10:43 2022.
