 Gaussian 16, Revision C.01,
 Gaussian 16:  ES64L-G16RevC.01  3-Jul-2019

 ---------------------------------------------------------------
 #n M062X/6-311++G(d,p) TD(NStates=1) EmpiricalDispersion=GD3 SP
 ---------------------------------------------------------------

 -----
 SP_75
 -----
 Symbolic Z-matrix:
 Charge =  1 Multiplicity = 1

                         Standard orientation:
 ---------------------------------------------------------------------
 Center     Atomic      Atomic             Coordinates (Angstroms)
 Number     Number       Type             X           Y           Z
 ---------------------------------------------------------------------
      1          6           0        2.494101   -1.360806    0.003361
      2          6           0        3.687558   -0.672607    0.020363
      3          6           0        3.659591    0.713419    0.020894
      4          6           0        2.445111    1.407784   -0.007390
      5          6           0       -2.444801    1.407980   -0.006903
      6          6           0       -3.658531    0.713721    0.021173
      7          6           0       -3.687258   -0.672296    0.020298
      8          6           0       -2.493610   -1.360573    0.002060
      9          6           0       -0.002260   -1.453438   -0.008849
     10          6           0        0.000154    1.429840   -0.024363
     11          6           0        1.277300   -0.676871   -0.020031
     12          6           0        1.234949    0.731010   -0.008212
     13          6           0       -1.277410   -0.676766   -0.019874
     14          6           0       -1.235193    0.731101   -0.007515
     15          1           0        2.489194   -2.443522   -0.034556
     16          1           0        4.625581   -1.212269    0.011248
     17          1           0        4.610839    1.272080    0.015465
     18          1           0        2.450027    2.489848    0.028065
     19          1           0        0.000149    2.510682   -0.001530
     20          1           0       -2.449673    2.490038    0.028954
     21          1           0       -4.609485    1.272453    0.016272
     22          1           0       -4.624926   -1.211880    0.011209
     23          1           0       -2.488748   -2.443285   -0.036159
     24          1           0       -0.000481   -2.162252    0.884920
     25          1           0       -0.000686   -2.130884   -0.833964
 ---------------------------------------------------------------------

 SCF Done:  E(RM062X) =  -539.756626222     A.U. after   15 cycles

 Excitation energies and oscillator strengths:

 Excited State   1:      Singlet-A      2.8468 eV  435.52 nm  f=0.0301  <S**2>=0.000
      47 -> 48         0.70422
 This state for optimization and/or second-order correction.
 Total Energy, E(TD-HF/TD-DFT) =  -539.652007810
 Copying the excited state density for this state as the 1-particle RhoCI density.

 The electronic state is 1-A.
 Alpha  occ. eigenvalues --  -10.77688 -10.73200 -10.73172 -10.72278 -10.72276
 Alpha  occ. eigenvalues --  -10.71171 -10.71156 -10.70967 -10.70886 -10.70882
 Alpha  occ. eigenvalues --  -10.69764 -10.69753 -10.69716 -10.69702  -1.16585
 Alpha  occ. eigenvalues --   -1.12884  -1.07180  -1.05587  -1.01752  -1.00093
 Alpha  occ. eigenvalues --   -0.95943  -0.91011  -0.86449  -0.85980  -0.83831
 Alpha  occ. eigenvalues --   -0.78451  -0.76041  -0.74500  -0.69570  -0.69236
 Alpha  occ. eigenvalues --   -0.68528  -0.68022  -0.67800  -0.65055  -0.64556
 Alpha  occ. eigenvalues --   -0.62757  -0.61589  -0.60101  -0.59978  -0.58968
 Alpha  occ. eigenvalues --   -0.56861  -0.55103  -0.54664  -0.52604  -0.46950
 Alpha  occ. eigenvalues --   -0.46002  -0.44665
 Alpha virt. eigenvalues --   -0.26140  -0.14492  -0.14053  -0.12545  -0.11185
 Alpha virt. eigenvalues --   -0.10102  -0.09261  -0.08079  -0.07931  -0.07488
 Alpha virt. eigenvalues --   -0.07229  -0.07096  -0.05637  -0.05582  -0.05300

 Mulliken charges:
               1
     1  C    0.087009
     2  C   -0.416145
     3  C   -0.440519
     4  C    0.067265
     5  C    0.068242
     6  C   -0.440553
     7  C   -0.417137
     8  C    0.086690
     9  C   -0.349687
    10  C    0.091975
    11  C   -0.544076
    12  C    0.570709
    13  C   -0.548028
    14  C    0.570363
    15  H    0.235543
    16  H    0.255485
    17  H    0.255157
    18  H    0.219423
    19  H    0.190154
    20  H    0.219375
    21  H    0.255069
    22  H    0.255331
    23  H    0.235712
    24  H    0.251117
    25  H    0.241526
 Sum of Mulliken charges =   1.00000

 Dipole moment (field-independent basis, Debye):
    X=              0.0025    Y=              0.1771    Z=             -0.0020  Tot=              0.1772
 Quadrupole moment (field-independent basis, Debye-Ang):
   XX=            -31.4644   YY=            -56.2612   ZZ=            -84.0132
   XY=              0.0014   XZ=             -0.0024   YZ=              0.1911

 Normal termination of Gaussian 16 at Thu Jul 28 16:03:07 2022.
