 Gaussian 16, Revision C.01,
 Gaussian 16:  ES64L-G16RevC.01  3-Jul-2019

 ---------------------------------------------------------------
 #n M062X/6-311++G(d,p) TD(NStates=1) EmpiricalDispersion=GD3 SP
 ---------------------------------------------------------------

 ------
 SP_-25
 ------
 Symbolic Z-matrix:
 Charge =  1 Multiplicity = 1

                         Standard orientation:
 ---------------------------------------------------------------------
 Center     Atomic      Atomic             Coordinates (Angstroms)
 Number     Number       Type             X           Y           Z
 ---------------------------------------------------------------------
      1          6           0       -2.491276   -1.360383    0.003339
      2          6           0       -3.711797   -0.671936    0.015320
      3          6           0       -3.701403    0.714001    0.015507
      4          6           0       -2.476482    1.407948   -0.005837
      5          6           0        2.477130    1.407515   -0.004865
      6          6           0        3.703519    0.713366    0.016058
      7          6           0        3.712369   -0.672563    0.015175
      8          6           0        2.492234   -1.360770    0.000717
      9          6           0       -0.004527   -1.453407   -0.006675
     10          6           0        0.000329    1.429555   -0.018264
     11          6           0       -1.250687   -0.676818   -0.015113
     12          6           0       -1.239506    0.731060   -0.006585
     13          6           0        1.250473   -0.677034   -0.014821
     14          6           0        1.239035    0.730831   -0.005199
     15          1           0       -2.486956   -2.443320   -0.024919
     16          1           0       -4.644738   -1.211513    0.008469
     17          1           0       -4.607229    1.272703    0.011122
     18          1           0       -2.480462    2.490215    0.020512
     19          1           0        0.000320    2.510500   -0.001132
     20          1           0        2.481187    2.489772    0.022285
     21          1           0        4.609945    1.271902    0.012701
     22          1           0        4.646019   -1.212299    0.008366
     23          1           0        2.487837   -2.443699   -0.028143
     24          1           0       -0.000990   -2.133771   -0.840395
     25          1           0       -0.001398   -2.158682    0.878595
 ---------------------------------------------------------------------

 SCF Done:  E(RM062X) =  -539.757062379     A.U. after   15 cycles

 Excitation energies and oscillator strengths:

 Excited State   1:      Singlet-A      2.7949 eV  443.61 nm  f=0.0275  <S**2>=0.000
      47 -> 48         0.70427
 This state for optimization and/or second-order correction.
 Total Energy, E(TD-HF/TD-DFT) =  -539.654352921
 Copying the excited state density for this state as the 1-particle RhoCI density.

 The electronic state is 1-A.
 Alpha  occ. eigenvalues --  -10.77656 -10.73319 -10.73264 -10.72566 -10.72563
 Alpha  occ. eigenvalues --  -10.71541 -10.71512 -10.71105 -10.71095 -10.70980
 Alpha  occ. eigenvalues --  -10.70154 -10.70133 -10.69596 -10.69569  -1.16348
 Alpha  occ. eigenvalues --   -1.12147  -1.06786  -1.05827  -1.01035  -1.00191
 Alpha  occ. eigenvalues --   -0.95667  -0.91083  -0.86407  -0.85849  -0.83801
 Alpha  occ. eigenvalues --   -0.78390  -0.75998  -0.74354  -0.69592  -0.69352
 Alpha  occ. eigenvalues --   -0.68667  -0.68263  -0.68114  -0.64508  -0.64085
 Alpha  occ. eigenvalues --   -0.63205  -0.62064  -0.59873  -0.59441  -0.59168
 Alpha  occ. eigenvalues --   -0.56942  -0.55286  -0.54922  -0.52315  -0.46441
 Alpha  occ. eigenvalues --   -0.46024  -0.44355
 Alpha virt. eigenvalues --   -0.26065  -0.14856  -0.14142  -0.12970  -0.11177
 Alpha virt. eigenvalues --   -0.10079  -0.09207  -0.08021  -0.07910  -0.07465
 Alpha virt. eigenvalues --   -0.07230  -0.07142  -0.05647  -0.05583  -0.05365

 Mulliken charges:
               1
     1  C    0.067117
     2  C   -0.395790
     3  C   -0.443175
     4  C    0.057791
     5  C    0.059211
     6  C   -0.442124
     7  C   -0.392075
     8  C    0.069023
     9  C   -0.283821
    10  C    0.092704
    11  C   -0.615288
    12  C    0.617694
    13  C   -0.614630
    14  C    0.613878
    15  H    0.235769
    16  H    0.257004
    17  H    0.243320
    18  H    0.222637
    19  H    0.187643
    20  H    0.222631
    21  H    0.243680
    22  H    0.257070
    23  H    0.235814
    24  H    0.247953
    25  H    0.255962
 Sum of Mulliken charges =   1.00000

 Dipole moment (field-independent basis, Debye):
    X=              0.0055    Y=              0.1920    Z=              0.0017  Tot=              0.1921
 Quadrupole moment (field-independent basis, Debye-Ang):
   XX=            -30.8555   YY=            -56.2588   ZZ=            -84.2390
   XY=              0.0031   XZ=              0.0049   YZ=              0.1437

 Normal termination of Gaussian 16 at Thu Jul 28 14:54:58 2022.
