 Gaussian 16, Revision C.01,
 Gaussian 16:  ES64L-G16RevC.01  3-Jul-2019

 ---------------------------------------------------------------
 #n M062X/6-311++G(d,p) TD(NStates=1) EmpiricalDispersion=GD3 SP
 ---------------------------------------------------------------

 ------
 SP_-50
 ------
 Symbolic Z-matrix:
 Charge =  1 Multiplicity = 1

                         Standard orientation:
 ---------------------------------------------------------------------
 Center     Atomic      Atomic             Coordinates (Angstroms)
 Number     Number       Type             X           Y           Z
 ---------------------------------------------------------------------
      1          6           0       -2.490978   -1.360501    0.004017
      2          6           0       -3.715324   -0.672137    0.020402
      3          6           0       -3.707604    0.713890    0.020764
      4          6           0       -2.481030    1.408101   -0.007623
      5          6           0        2.481682    1.407663   -0.006653
      6          6           0        3.709719    0.713251    0.021314
      7          6           0        3.715892   -0.672765    0.020256
      8          6           0        2.491933   -1.360878    0.001394
      9          6           0       -0.004528   -1.453438   -0.008881
     10          6           0        0.000332    1.429840   -0.024354
     11          6           0       -1.246862   -0.676710   -0.020098
     12          6           0       -1.240105    0.731173   -0.008550
     13          6           0        1.246648   -0.676927   -0.019810
     14          6           0        1.239637    0.730938   -0.007166
     15          1           0       -2.486732   -2.443221   -0.033755
     16          1           0       -4.647615   -1.211681    0.011277
     17          1           0       -4.607004    1.272671    0.015090
     18          1           0       -2.484886    2.490169    0.027638
     19          1           0        0.000323    2.510682   -0.001516
     20          1           0        2.485614    2.489716    0.029410
     21          1           0        4.609720    1.271862    0.016665
     22          1           0        4.648892   -1.212468    0.011171
     23          1           0        2.487611   -2.443586   -0.036981
     24          1           0       -0.000994   -2.130330   -0.833964
     25          1           0       -0.001402   -2.162807    0.884901
 ---------------------------------------------------------------------

 SCF Done:  E(RM062X) =  -539.754904938     A.U. after   15 cycles

 Excitation energies and oscillator strengths:

 Excited State   1:      Singlet-A      2.7838 eV  445.39 nm  f=0.0271  <S**2>=0.000
      47 -> 48         0.70427
 This state for optimization and/or second-order correction.
 Total Energy, E(TD-HF/TD-DFT) =  -539.652603946
 Copying the excited state density for this state as the 1-particle RhoCI density.

 The electronic state is 1-A.
 Alpha  occ. eigenvalues --  -10.77654 -10.73338 -10.73283 -10.72610 -10.72608
 Alpha  occ. eigenvalues --  -10.71595 -10.71566 -10.71137 -10.71127 -10.70979
 Alpha  occ. eigenvalues --  -10.70213 -10.70192 -10.69583 -10.69556  -1.16319
 Alpha  occ. eigenvalues --   -1.12040  -1.06738  -1.05855  -1.00960  -1.00173
 Alpha  occ. eigenvalues --   -0.95629  -0.91090  -0.86406  -0.85832  -0.83795
 Alpha  occ. eigenvalues --   -0.78392  -0.75984  -0.74332  -0.69611  -0.69407
 Alpha  occ. eigenvalues --   -0.68746  -0.68274  -0.68082  -0.64435  -0.64020
 Alpha  occ. eigenvalues --   -0.63232  -0.62126  -0.59821  -0.59359  -0.59189
 Alpha  occ. eigenvalues --   -0.56961  -0.55307  -0.54939  -0.52275  -0.46403
 Alpha  occ. eigenvalues --   -0.45988  -0.44302
 Alpha virt. eigenvalues --   -0.26061  -0.14929  -0.14159  -0.13040  -0.11177
 Alpha virt. eigenvalues --   -0.10078  -0.09199  -0.08039  -0.07889  -0.07461
 Alpha virt. eigenvalues --   -0.07245  -0.07135  -0.05649  -0.05584  -0.05377

 Mulliken charges:
               1
     1  C    0.054333
     2  C   -0.388927
     3  C   -0.443301
     4  C    0.078058
     5  C    0.079845
     6  C   -0.442076
     7  C   -0.385022
     8  C    0.056394
     9  C   -0.270009
    10  C    0.085974
    11  C   -0.593373
    12  C    0.581136
    13  C   -0.594058
    14  C    0.576915
    15  H    0.235019
    16  H    0.257234
    17  H    0.241439
    18  H    0.222520
    19  H    0.186390
    20  H    0.222504
    21  H    0.241820
    22  H    0.257269
    23  H    0.235119
    24  H    0.246966
    25  H    0.257833
 Sum of Mulliken charges =   1.00000

 Dipole moment (field-independent basis, Debye):
    X=              0.0055    Y=              0.1928    Z=              0.0030  Tot=              0.1929
 Quadrupole moment (field-independent basis, Debye-Ang):
   XX=            -30.7698   YY=            -56.2565   ZZ=            -84.2712
   XY=              0.0031   XZ=              0.0049   YZ=              0.1916

 Normal termination of Gaussian 16 at Thu Jul 28 14:35:37 2022.
