 Gaussian 16, Revision C.01,
 Gaussian 16:  ES64L-G16RevC.01  3-Jul-2019

 ---------------------------------------------------------------
 #n M062X/6-311++G(d,p) TD(NStates=1) EmpiricalDispersion=GD3 SP
 ---------------------------------------------------------------

 -------
 SP_-150
 -------
 Symbolic Z-matrix:
 Charge =  1 Multiplicity = 1

                         Standard orientation:
 ---------------------------------------------------------------------
 Center     Atomic      Atomic             Coordinates (Angstroms)
 Number     Number       Type             X           Y           Z
 ---------------------------------------------------------------------
      1          6           0       -2.492746   -1.360876   -0.000573
      2          6           0       -3.710824   -0.672718    0.012592
      3          6           0       -3.701213    0.713175    0.013607
      4          6           0       -2.475096    1.407296   -0.003656
      5          6           0        2.473966    1.408048   -0.005356
      6          6           0        3.697509    0.714282    0.012642
      7          6           0        3.709818   -0.671621    0.012843
      8          6           0        2.491066   -1.360188    0.004012
      9          6           0        0.007922   -1.453396   -0.005404
     10          6           0       -0.000573    1.429443   -0.015268
     11          6           0       -1.252305   -0.677157   -0.012206
     12          6           0       -1.238557    0.730705   -0.003725
     13          6           0        1.252680   -0.676781   -0.012719
     14          6           0        1.239384    0.731099   -0.006152
     15          1           0       -2.488281   -2.443890   -0.024869
     16          1           0       -4.645064   -1.212527    0.006952
     17          1           0       -4.611075    1.271619    0.011268
     18          1           0       -2.479246    2.489630    0.019308
     19          1           0       -0.000557    2.510429   -0.001021
     20          1           0        2.477978    2.490398    0.016205
     21          1           0        4.606323    1.273015    0.008500
     22          1           0        4.642818   -1.211152    0.007129
     23          1           0        2.486738   -2.443215   -0.019231
     24          1           0        0.001729   -2.138577   -0.843587
     25          1           0        0.002443   -2.153606    0.875522
 ---------------------------------------------------------------------

 SCF Done:  E(RM062X) =  -539.757994226     A.U. after   15 cycles

 Excitation energies and oscillator strengths:

 Excited State   1:      Singlet-A      2.8001 eV  442.78 nm  f=0.0277  <S**2>=0.000
      47 -> 48         0.70427
 This state for optimization and/or second-order correction.
 Total Energy, E(TD-HF/TD-DFT) =  -539.655092240
 Copying the excited state density for this state as the 1-particle RhoCI density.

 The electronic state is 1-A.
 Alpha  occ. eigenvalues --  -10.77657 -10.73331 -10.73234 -10.72544 -10.72540
 Alpha  occ. eigenvalues --  -10.71526 -10.71474 -10.71092 -10.71075 -10.70983
 Alpha  occ. eigenvalues --  -10.70133 -10.70096 -10.69613 -10.69566  -1.16363
 Alpha  occ. eigenvalues --   -1.12200  -1.06811  -1.05813  -1.01077  -1.00195
 Alpha  occ. eigenvalues --   -0.95685  -0.91078  -0.86408  -0.85856  -0.83804
 Alpha  occ. eigenvalues --   -0.78389  -0.76004  -0.74365  -0.69582  -0.69328
 Alpha  occ. eigenvalues --   -0.68624  -0.68255  -0.68132  -0.64545  -0.64119
 Alpha  occ. eigenvalues --   -0.63190  -0.62030  -0.59899  -0.59481  -0.59157
 Alpha  occ. eigenvalues --   -0.56933  -0.55280  -0.54905  -0.52336  -0.46465
 Alpha  occ. eigenvalues --   -0.46037  -0.44380
 Alpha virt. eigenvalues --   -0.26068  -0.14821  -0.14135  -0.12936  -0.11177
 Alpha virt. eigenvalues --   -0.10080  -0.09211  -0.08012  -0.07922  -0.07467
 Alpha virt. eigenvalues --   -0.07225  -0.07142  -0.05647  -0.05582  -0.05359

 Mulliken charges:
               1
     1  C    0.075855
     2  C   -0.393522
     3  C   -0.441435
     4  C    0.048867
     5  C    0.046678
     6  C   -0.443104
     7  C   -0.399784
     8  C    0.072665
     9  C   -0.293391
    10  C    0.094143
    11  C   -0.622816
    12  C    0.631478
    13  C   -0.625341
    14  C    0.637714
    15  H    0.236168
    16  H    0.256989
    17  H    0.244732
    18  H    0.222621
    19  H    0.188225
    20  H    0.222618
    21  H    0.244122
    22  H    0.256847
    23  H    0.236135
    24  H    0.248155
    25  H    0.255382
 Sum of Mulliken charges =   1.00000

 Dipole moment (field-independent basis, Debye):
    X=             -0.0095    Y=              0.1914    Z=              0.0018  Tot=              0.1916
 Quadrupole moment (field-independent basis, Debye-Ang):
   XX=            -30.8993   YY=            -56.2598   ZZ=            -84.2229
   XY=             -0.0053   XZ=             -0.0086   YZ=              0.1217

 Normal termination of Gaussian 16 at Thu Jul 28 13:00:20 2022.
