 Gaussian 16, Revision C.01,
 Gaussian 16:  ES64L-G16RevC.01  3-Jul-2019

 ---------------------------------------------------------------
 #n M062X/6-311++G(d,p) TD(NStates=1) EmpiricalDispersion=GD3 SP
 ---------------------------------------------------------------

 ------
 SP_-25
 ------
 Symbolic Z-matrix:
 Charge =  1 Multiplicity = 1

                         Standard orientation:
 ---------------------------------------------------------------------
 Center     Atomic      Atomic             Coordinates (Angstroms)
 Number     Number       Type             X           Y           Z
 ---------------------------------------------------------------------
      1          6           0        2.493987   -1.360828    0.003299
      2          6           0        3.694903   -0.672572    0.010262
      3          6           0        3.673051    0.713305    0.010113
      4          6           0        2.454526    1.407321   -0.004283
      5          6           0       -2.453585    1.407927   -0.002823
      6          6           0       -3.669871    0.714225    0.010946
      7          6           0       -3.694014   -0.671637    0.010062
      8          6           0       -2.492524   -1.360164   -0.000613
      9          6           0       -0.006782   -1.453385   -0.004499
     10          6           0        0.000470    1.429352   -0.012162
     11          6           0        1.269541   -0.677162   -0.010212
     12          6           0        1.235908    0.730720   -0.004963
     13          6           0       -1.269868   -0.676845   -0.009751
     14          6           0       -1.236634    0.731014   -0.002876
     15          1           0        2.489188   -2.443921   -0.015299
     16          1           0        4.631980   -1.212371    0.005668
     17          1           0        4.611745    1.271757    0.006751
     18          1           0        2.459235    2.489731    0.012958
     19          1           0        0.000457    2.510370   -0.000731
     20          1           0       -2.458165    2.490328    0.015622
     21          1           0       -4.607679    1.272900    0.009157
     22          1           0       -4.630027   -1.211200    0.005540
     23          1           0       -2.487856   -2.443251   -0.020114
     24          1           0       -0.001454   -2.155210    0.872256
     25          1           0       -0.002068   -2.136754   -0.846818
 ---------------------------------------------------------------------

 SCF Done:  E(RM062X) =  -539.759448509     A.U. after   15 cycles

 Excitation energies and oscillator strengths:

 Excited State   1:      Singlet-A      2.8367 eV  437.07 nm  f=0.0294  <S**2>=0.000
      47 -> 48         0.70424
 This state for optimization and/or second-order correction.
 Total Energy, E(TD-HF/TD-DFT) =  -539.655201412
 Copying the excited state density for this state as the 1-particle RhoCI density.

 The electronic state is 1-A.
 Alpha  occ. eigenvalues --  -10.77675 -10.73253 -10.73169 -10.72357 -10.72352
 Alpha  occ. eigenvalues --  -10.71287 -10.71243 -10.70974 -10.70951 -10.70937
 Alpha  occ. eigenvalues --  -10.69880 -10.69847 -10.69687 -10.69647  -1.16512
 Alpha  occ. eigenvalues --   -1.12676  -1.07060  -1.05663  -1.01526  -1.00147
 Alpha  occ. eigenvalues --   -0.95862  -0.91035  -0.86433  -0.85939  -0.83824
 Alpha  occ. eigenvalues --   -0.78420  -0.76038  -0.74460  -0.69562  -0.69224
 Alpha  occ. eigenvalues --   -0.68500  -0.68117  -0.67972  -0.64897  -0.64420
 Alpha  occ. eigenvalues --   -0.62930  -0.61726  -0.60065  -0.59831  -0.59034
 Alpha  occ. eigenvalues --   -0.56876  -0.55165  -0.54754  -0.52520  -0.46782
 Alpha  occ. eigenvalues --   -0.46038  -0.44588
 Alpha virt. eigenvalues --   -0.26111  -0.14570  -0.14073  -0.12654  -0.11181
 Alpha virt. eigenvalues --   -0.10093  -0.09245  -0.08028  -0.07950  -0.07482
 Alpha virt. eigenvalues --   -0.07211  -0.07125  -0.05640  -0.05581  -0.05314

 Mulliken charges:
               1
     1  C    0.094719
     2  C   -0.413160
     3  C   -0.441719
     4  C    0.034198
     5  C    0.034785
     6  C   -0.442149
     7  C   -0.416573
     8  C    0.092449
     9  C   -0.335534
    10  C    0.100550
    11  C   -0.596064
    12  C    0.637846
    13  C   -0.607344
    14  C    0.639173
    15  H    0.236465
    16  H    0.256070
    17  H    0.252357
    18  H    0.221014
    19  H    0.190866
    20  H    0.220896
    21  H    0.251997
    22  H    0.255722
    23  H    0.236787
    24  H    0.250682
    25  H    0.245967
 Sum of Mulliken charges =   1.00000

 Dipole moment (field-independent basis, Debye):
    X=              0.0077    Y=              0.1830    Z=             -0.0007  Tot=              0.1831
 Quadrupole moment (field-independent basis, Debye-Ang):
   XX=            -31.2895   YY=            -56.2628   ZZ=            -84.0774
   XY=              0.0043   XZ=             -0.0073   YZ=              0.0951

 Normal termination of Gaussian 16 at Thu Jul 28 14:38:58 2022.
