 Gaussian 16, Revision C.01,
 Gaussian 16:  ES64L-G16RevC.01  3-Jul-2019

 ---------------------------------------------------------------
 #n M062X/6-311++G(d,p) TD(NStates=1) EmpiricalDispersion=GD3 SP
 ---------------------------------------------------------------

 ------
 SP_100
 ------
 Symbolic Z-matrix:
 Charge =  1 Multiplicity = 1

                         Standard orientation:
 ---------------------------------------------------------------------
 Center     Atomic      Atomic             Coordinates (Angstroms)
 Number     Number       Type             X           Y           Z
 ---------------------------------------------------------------------
      1          6           0       -2.491151   -1.359935    0.003924
      2          6           0       -3.704308   -0.671236    0.005251
      3          6           0       -3.687414    0.714596    0.004594
      4          6           0       -2.466906    1.408086   -0.002961
      5          6           0        2.468505    1.407033   -0.000531
      6          6           0        3.692708    0.713030    0.005976
      7          6           0        3.705759   -0.672800    0.004900
      8          6           0        2.493563   -1.360960   -0.002616
      9          6           0       -0.011312   -1.453370   -0.002365
     10          6           0        0.000807    1.429230   -0.006050
     11          6           0       -1.258499   -0.676782   -0.005369
     12          6           0       -1.238665    0.731089   -0.003677
     13          6           0        1.257960   -0.677317   -0.004625
     14          6           0        1.237475    0.730551   -0.000207
     15          1           0       -2.486744   -2.443124   -0.004867
     16          1           0       -4.638017   -1.210734    0.002908
     17          1           0       -4.605644    1.273326    0.002021
     18          1           0       -2.471073    2.490583    0.004977
     19          1           0        0.000785    2.510292   -0.000316
     20          1           0        2.472875    2.489519    0.009413
     21          1           0        4.612429    1.271360    0.005994
     22          1           0        4.641240   -1.212693    0.002667
     23          1           0        2.488954   -2.444140   -0.012913
     24          1           0       -0.002454   -2.139281   -0.853239
     25          1           0       -0.003477   -2.152390    0.865890
 ---------------------------------------------------------------------

 SCF Done:  E(RM062X) =  -539.759572075     A.U. after   15 cycles

 Excitation energies and oscillator strengths:

 Excited State   1:      Singlet-A      2.8143 eV  440.54 nm  f=0.0283  <S**2>=0.000
      47 -> 48         0.70426
 This state for optimization and/or second-order correction.
 Total Energy, E(TD-HF/TD-DFT) =  -539.656146867
 Copying the excited state density for this state as the 1-particle RhoCI density.

 The electronic state is 1-A.
 Alpha  occ. eigenvalues --  -10.77661 -10.73325 -10.73187 -10.72481 -10.72474
 Alpha  occ. eigenvalues --  -10.71458 -10.71384 -10.71048 -10.71024 -10.70981
 Alpha  occ. eigenvalues --  -10.70055 -10.70002 -10.69647 -10.69579  -1.16411
 Alpha  occ. eigenvalues --   -1.12360  -1.06890  -1.05769  -1.01214  -1.00193
 Alpha  occ. eigenvalues --   -0.95743  -0.91066  -0.86416  -0.85882  -0.83812
 Alpha  occ. eigenvalues --   -0.78394  -0.76021  -0.74397  -0.69571  -0.69270
 Alpha  occ. eigenvalues --   -0.68539  -0.68224  -0.68128  -0.64660  -0.64219
 Alpha  occ. eigenvalues --   -0.63127  -0.61928  -0.59965  -0.59600  -0.59120
 Alpha  occ. eigenvalues --   -0.56909  -0.55251  -0.54855  -0.52397  -0.46555
 Alpha  occ. eigenvalues --   -0.46056  -0.44454
 Alpha virt. eigenvalues --   -0.26079  -0.14727  -0.14112  -0.12837  -0.11178
 Alpha virt. eigenvalues --   -0.10083  -0.09222  -0.07991  -0.07953  -0.07472
 Alpha virt. eigenvalues --   -0.07206  -0.07150  -0.05645  -0.05582  -0.05342

 Mulliken charges:
               1
     1  C    0.085467
     2  C   -0.406533
     3  C   -0.441128
     4  C    0.019423
     5  C    0.021626
     6  C   -0.439521
     7  C   -0.398875
     8  C    0.090233
     9  C   -0.322392
    10  C    0.092410
    11  C   -0.643654
    12  C    0.683141
    13  C   -0.633669
    14  C    0.675981
    15  H    0.237139
    16  H    0.256380
    17  H    0.246746
    18  H    0.222315
    19  H    0.189741
    20  H    0.222382
    21  H    0.247537
    22  H    0.256703
    23  H    0.236992
    24  H    0.249729
    25  H    0.251828
 Sum of Mulliken charges =   1.00000

 Dipole moment (field-independent basis, Debye):
    X=              0.0133    Y=              0.1893    Z=             -0.0003  Tot=              0.1898
 Quadrupole moment (field-independent basis, Debye-Ang):
   XX=            -31.0291   YY=            -56.2616   ZZ=            -84.1741
   XY=              0.0075   XZ=              0.0123   YZ=              0.0464

 Normal termination of Gaussian 16 at Thu Jul 28 16:42:02 2022.
