 Gaussian 16, Revision C.01,
 Gaussian 16:  ES64L-G16RevC.01  3-Jul-2019

 ---------------------------------------------------------------
 #n M062X/6-311++G(d,p) TD(NStates=1) EmpiricalDispersion=GD3 SP
 ---------------------------------------------------------------

 ------
 SP_125
 ------
 Symbolic Z-matrix:
 Charge =  1 Multiplicity = 1

                         Standard orientation:
 ---------------------------------------------------------------------
 Center     Atomic      Atomic             Coordinates (Angstroms)
 Number     Number       Type             X           Y           Z
 ---------------------------------------------------------------------
      1          6           0        2.493338   -1.360457    0.001410
      2          6           0        3.688946   -0.672109    0.017746
      3          6           0        3.661366    0.713859    0.018600
      4          6           0        2.446998    1.407950   -0.005911
      5          6           0       -2.447464    1.407653   -0.006641
      6          6           0       -3.662957    0.713404    0.018183
      7          6           0       -3.689395   -0.672576    0.017844
      8          6           0       -2.494073   -1.360801    0.003362
      9          6           0        0.003390   -1.453423   -0.007668
     10          6           0       -0.000232    1.429687   -0.021341
     11          6           0        1.275525   -0.676798   -0.017337
     12          6           0        1.235554    0.731067   -0.006372
     13          6           0       -1.275360   -0.676955   -0.017571
     14          6           0       -1.235188    0.730927   -0.007416
     15          1           0        2.488525   -2.443285   -0.032113
     16          1           0        4.626200   -1.211692    0.009807
     17          1           0        4.609034    1.272567    0.014470
     18          1           0        2.451796    2.490115    0.025576
     19          1           0       -0.000225    2.510585   -0.001375
     20          1           0       -2.452329    2.489826    0.024244
     21          1           0       -4.611065    1.272005    0.013261
     22          1           0       -4.627181   -1.212276    0.009868
     23          1           0       -2.489193   -2.443636   -0.029709
     24          1           0        0.000722   -2.158791    0.881814
     25          1           0        0.001030   -2.133978   -0.837177
 ---------------------------------------------------------------------

 SCF Done:  E(RM062X) =  -539.757618290     A.U. after   15 cycles

 Excitation energies and oscillator strengths:

 Excited State   1:      Singlet-A      2.8447 eV  435.85 nm  f=0.0299  <S**2>=0.000
      47 -> 48         0.70423
 This state for optimization and/or second-order correction.
 Total Energy, E(TD-HF/TD-DFT) =  -539.653078273
 Copying the excited state density for this state as the 1-particle RhoCI density.

 The electronic state is 1-A.
 Alpha  occ. eigenvalues --  -10.77684 -10.73213 -10.73171 -10.72297 -10.72295
 Alpha  occ. eigenvalues --  -10.71200 -10.71178 -10.70971 -10.70902 -10.70895
 Alpha  occ. eigenvalues --  -10.69792 -10.69776 -10.69708 -10.69688  -1.16566
 Alpha  occ. eigenvalues --   -1.12832  -1.07150  -1.05605  -1.01695  -1.00108
 Alpha  occ. eigenvalues --   -0.95922  -0.91016  -0.86444  -0.85969  -0.83829
 Alpha  occ. eigenvalues --   -0.78442  -0.76041  -0.74490  -0.69565  -0.69230
 Alpha  occ. eigenvalues --   -0.68518  -0.68047  -0.67848  -0.65016  -0.64522
 Alpha  occ. eigenvalues --   -0.62803  -0.61623  -0.60095  -0.59942  -0.58985
 Alpha  occ. eigenvalues --   -0.56864  -0.55119  -0.54688  -0.52583  -0.46907
 Alpha  occ. eigenvalues --   -0.46012  -0.44646
 Alpha virt. eigenvalues --   -0.26132  -0.14509  -0.14057  -0.12572  -0.11184
 Alpha virt. eigenvalues --   -0.10100  -0.09257  -0.08066  -0.07936  -0.07487
 Alpha virt. eigenvalues --   -0.07225  -0.07102  -0.05638  -0.05582  -0.05303

 Mulliken charges:
               1
     1  C    0.088382
     2  C   -0.417397
     3  C   -0.441370
     4  C    0.060687
     5  C    0.059513
     6  C   -0.441268
     7  C   -0.415873
     8  C    0.089056
     9  C   -0.344237
    10  C    0.095852
    11  C   -0.563372
    12  C    0.585818
    13  C   -0.557418
    14  C    0.586089
    15  H    0.235968
    16  H    0.255440
    17  H    0.254338
    18  H    0.219820
    19  H    0.190416
    20  H    0.219890
    21  H    0.254483
    22  H    0.255656
    23  H    0.235739
    24  H    0.251276
    25  H    0.242512
 Sum of Mulliken charges =   1.00000

 Dipole moment (field-independent basis, Debye):
    X=             -0.0038    Y=              0.1787    Z=             -0.0011  Tot=              0.1787
 Quadrupole moment (field-independent basis, Debye-Ang):
   XX=            -31.4207   YY=            -56.2619   ZZ=            -84.0293
   XY=             -0.0021   XZ=              0.0036   YZ=              0.1682

 Normal termination of Gaussian 16 at Thu Jul 28 16:49:56 2022.
