 Gaussian 16, Revision C.01,
 Gaussian 16:  ES64L-G16RevC.01  3-Jul-2019

 ---------------------------------------------------------------
 #n M062X/6-311++G(d,p) TD(NStates=1) EmpiricalDispersion=GD3 SP
 ---------------------------------------------------------------

 ------
 SP_100
 ------
 Symbolic Z-matrix:
 Charge =  1 Multiplicity = 1

                         Standard orientation:
 ---------------------------------------------------------------------
 Center     Atomic      Atomic             Coordinates (Angstroms)
 Number     Number       Type             X           Y           Z
 ---------------------------------------------------------------------
      1          6           0        2.494128   -1.360817    0.003377
      2          6           0        3.685721   -0.672651    0.022888
      3          6           0        3.656226    0.713426    0.023589
      4          6           0        2.442758    1.407925   -0.008166
      5          6           0       -2.442604    1.408022   -0.007922
      6          6           0       -3.655696    0.713577    0.023729
      7          6           0       -3.685570   -0.672496    0.022856
      8          6           0       -2.493882   -1.360700    0.002727
      9          6           0       -0.001130   -1.453457   -0.009937
     10          6           0        0.000076    1.430012   -0.027412
     11          6           0        1.279240   -0.676779   -0.022484
     12          6           0        1.234710    0.731100   -0.009023
     13          6           0       -1.279295   -0.676727   -0.022406
     14          6           0       -1.234832    0.731145   -0.008674
     15          1           0        2.489195   -2.443399   -0.039371
     16          1           0        4.623980   -1.212274    0.012643
     17          1           0        4.610613    1.272152    0.017646
     18          1           0        2.447726    2.489865    0.031843
     19          1           0        0.000074    2.510793   -0.001728
     20          1           0       -2.447549    2.489959    0.032287
     21          1           0       -4.609936    1.272338    0.018050
     22          1           0       -4.623651   -1.212080    0.012624
     23          1           0       -2.488972   -2.443278   -0.040171
     24          1           0       -0.000240   -2.164074    0.888077
     25          1           0       -0.000342   -2.129478   -0.830745
 ---------------------------------------------------------------------

 SCF Done:  E(RM062X) =  -539.755581887     A.U. after   15 cycles

 Excitation energies and oscillator strengths:

 Excited State   1:      Singlet-A      2.8487 eV  435.23 nm  f=0.0302  <S**2>=0.000
      47 -> 48         0.70421
 This state for optimization and/or second-order correction.
 Total Energy, E(TD-HF/TD-DFT) =  -539.650892861
 Copying the excited state density for this state as the 1-particle RhoCI density.

 The electronic state is 1-A.
 Alpha  occ. eigenvalues --  -10.77692 -10.73188 -10.73174 -10.72259 -10.72258
 Alpha  occ. eigenvalues --  -10.71142 -10.71135 -10.70965 -10.70871 -10.70868
 Alpha  occ. eigenvalues --  -10.69736 -10.69730 -10.69723 -10.69717  -1.16604
 Alpha  occ. eigenvalues --   -1.12936  -1.07211  -1.05568  -1.01810  -1.00077
 Alpha  occ. eigenvalues --   -0.95963  -0.91005  -0.86454  -0.85990  -0.83832
 Alpha  occ. eigenvalues --   -0.78460  -0.76040  -0.74510  -0.69574  -0.69244
 Alpha  occ. eigenvalues --   -0.68537  -0.67996  -0.67754  -0.65094  -0.64590
 Alpha  occ. eigenvalues --   -0.62709  -0.61555  -0.60105  -0.60014  -0.58950
 Alpha  occ. eigenvalues --   -0.56858  -0.55088  -0.54639  -0.52625  -0.46993
 Alpha  occ. eigenvalues --   -0.45992  -0.44682
 Alpha virt. eigenvalues --   -0.26148  -0.14475  -0.14048  -0.12520  -0.11186
 Alpha virt. eigenvalues --   -0.10105  -0.09266  -0.08092  -0.07928  -0.07489
 Alpha virt. eigenvalues --   -0.07235  -0.07089  -0.05636  -0.05582  -0.05296

 Mulliken charges:
               1
     1  C    0.085424
     2  C   -0.416265
     3  C   -0.439584
     4  C    0.074511
     5  C    0.075092
     6  C   -0.439581
     7  C   -0.416752
     8  C    0.085324
     9  C   -0.356587
    10  C    0.087507
    11  C   -0.531228
    12  C    0.556723
    13  C   -0.533182
    14  C    0.556481
    15  H    0.235369
    16  H    0.255295
    17  H    0.255818
    18  H    0.218905
    19  H    0.189834
    20  H    0.218881
    21  H    0.255777
    22  H    0.255214
    23  H    0.235461
    24  H    0.251156
    25  H    0.240410
 Sum of Mulliken charges =   1.00000

 Dipole moment (field-independent basis, Debye):
    X=              0.0012    Y=              0.1755    Z=             -0.0025  Tot=              0.1755
 Quadrupole moment (field-independent basis, Debye-Ang):
   XX=            -31.5089   YY=            -56.2605   ZZ=            -83.9971
   XY=              0.0007   XZ=             -0.0012   YZ=              0.2149

 Normal termination of Gaussian 16 at Thu Jul 28 16:24:08 2022.
