 Gaussian 16, Revision C.01,
 Gaussian 16:  ES64L-G16RevC.01  3-Jul-2019

 ---------------------------------------------------------------
 #n M062X/6-311++G(d,p) TD(NStates=1) EmpiricalDispersion=GD3 SP
 ---------------------------------------------------------------

 -------
 SP_-100
 -------
 Symbolic Z-matrix:
 Charge =  1 Multiplicity = 1

                         Standard orientation:
 ---------------------------------------------------------------------
 Center     Atomic      Atomic             Coordinates (Angstroms)
 Number     Number       Type             X           Y           Z
 ---------------------------------------------------------------------
      1          6           0       -2.493079   -1.360755   -0.001265
      2          6           0       -3.705469   -0.672487    0.004985
      3          6           0       -3.691649    0.713344    0.005656
      4          6           0       -2.468186    1.407243   -0.001088
      5          6           0        2.467226    1.407875   -0.002546
      6          6           0        3.688473    0.714283    0.004827
      7          6           0        3.704598   -0.671549    0.005196
      8          6           0        2.491632   -1.360140    0.002659
      9          6           0        0.006787   -1.453373   -0.002113
     10          6           0       -0.000484    1.429230   -0.006122
     11          6           0       -1.258068   -0.677210   -0.004759
     12          6           0       -1.237714    0.730658   -0.000943
     13          6           0        1.258392   -0.676889   -0.005205
     14          6           0        1.238428    0.730981   -0.003026
     15          1           0       -2.488510   -2.443937   -0.011215
     16          1           0       -4.640595   -1.212301    0.002753
     17          1           0       -4.611072    1.271754    0.005133
     18          1           0       -2.472515    2.489733    0.008409
     19          1           0       -0.000471    2.510292   -0.000433
     20          1           0        2.471434    2.490371    0.005748
     21          1           0        4.607002    1.272933    0.002749
     22          1           0        4.638661   -1.211125    0.002897
     23          1           0        2.487184   -2.443327   -0.006388
     24          1           0        0.001473   -2.143717   -0.853181
     25          1           0        0.002086   -2.147954    0.865987
 ---------------------------------------------------------------------

 SCF Done:  E(RM062X) =  -539.759725336     A.U. after   15 cycles

 Excitation energies and oscillator strengths:

 Excited State   1:      Singlet-A      2.8144 eV  440.53 nm  f=0.0283  <S**2>=0.000
      47 -> 48         0.70426
 This state for optimization and/or second-order correction.
 Total Energy, E(TD-HF/TD-DFT) =  -539.656297360
 Copying the excited state density for this state as the 1-particle RhoCI density.

 The electronic state is 1-A.
 Alpha  occ. eigenvalues --  -10.77661 -10.73298 -10.73215 -10.72479 -10.72475
 Alpha  occ. eigenvalues --  -10.71443 -10.71399 -10.71043 -10.71029 -10.70981
 Alpha  occ. eigenvalues --  -10.70044 -10.70012 -10.69633 -10.69592  -1.16410
 Alpha  occ. eigenvalues --   -1.12360  -1.06890  -1.05765  -1.01214  -1.00194
 Alpha  occ. eigenvalues --   -0.95743  -0.91065  -0.86414  -0.85883  -0.83811
 Alpha  occ. eigenvalues --   -0.78393  -0.76020  -0.74397  -0.69567  -0.69271
 Alpha  occ. eigenvalues --   -0.68536  -0.68223  -0.68133  -0.64660  -0.64218
 Alpha  occ. eigenvalues --   -0.63123  -0.61932  -0.59965  -0.59601  -0.59120
 Alpha  occ. eigenvalues --   -0.56909  -0.55244  -0.54866  -0.52397  -0.46555
 Alpha  occ. eigenvalues --   -0.46056  -0.44455
 Alpha virt. eigenvalues --   -0.26079  -0.14726  -0.14112  -0.12837  -0.11178
 Alpha virt. eigenvalues --   -0.10083  -0.09222  -0.07989  -0.07954  -0.07472
 Alpha virt. eigenvalues --   -0.07208  -0.07148  -0.05645  -0.05582  -0.05342

 Mulliken charges:
               1
     1  C    0.089439
     2  C   -0.400501
     3  C   -0.439942
     4  C    0.021623
     5  C    0.020303
     6  C   -0.440912
     7  C   -0.405114
     8  C    0.086684
     9  C   -0.322328
    10  C    0.092770
    11  C   -0.635970
    12  C    0.677040
    13  C   -0.641944
    14  C    0.681315
    15  H    0.237020
    16  H    0.256637
    17  H    0.247380
    18  H    0.222374
    19  H    0.189722
    20  H    0.222334
    21  H    0.246906
    22  H    0.256442
    23  H    0.237110
    24  H    0.249293
    25  H    0.252318
 Sum of Mulliken charges =   1.00000

 Dipole moment (field-independent basis, Debye):
    X=             -0.0080    Y=              0.1894    Z=              0.0007  Tot=              0.1895
 Quadrupole moment (field-independent basis, Debye-Ang):
   XX=            -31.0293   YY=            -56.2618   ZZ=            -84.1742
   XY=             -0.0045   XZ=             -0.0074   YZ=              0.0493

 Normal termination of Gaussian 16 at Thu Jul 28 13:40:52 2022.
