 Gaussian 16, Revision C.01,
 Gaussian 16:  ES64L-G16RevC.01  3-Jul-2019

 ---------------------------------------------------------------
 #n M062X/6-311++G(d,p) TD(NStates=1) EmpiricalDispersion=GD3 SP
 ---------------------------------------------------------------

 -------
 SP_-125
 -------
 Symbolic Z-matrix:
 Charge =  1 Multiplicity = 1

                         Standard orientation:
 ---------------------------------------------------------------------
 Center     Atomic      Atomic             Coordinates (Angstroms)
 Number     Number       Type             X           Y           Z
 ---------------------------------------------------------------------
      1          6           0        2.494142   -1.361022    0.003899
      2          6           0        3.700553   -0.672855    0.002719
      3          6           0        3.683675    0.712973    0.001894
      4          6           0        2.461752    1.406975   -0.002183
      5          6           0       -2.460010    1.408111    0.000492
      6          6           0       -3.677848    0.714677    0.003418
      7          6           0       -3.698940   -0.671138    0.002343
      8          6           0       -2.491474   -1.359849   -0.003284
      9          6           0       -0.012439   -1.453367   -0.001265
     10          6           0        0.000875    1.429199   -0.002997
     11          6           0        1.263669   -0.677353   -0.002921
     12          6           0        1.236510    0.730525   -0.002864
     13          6           0       -1.264266   -0.676769   -0.002089
     14          6           0       -1.237830    0.731091    0.000957
     15          1           0        2.489405   -2.444230   -0.000063
     16          1           0        4.637098   -1.212771    0.001502
     17          1           0        4.613103    1.271283   -0.000169
     18          1           0        2.466322    2.489491    0.001202
     19          1           0        0.000851    2.510272   -0.000112
     20          1           0       -2.464350    2.490623    0.006083
     21          1           0       -4.605645    1.273411    0.004222
     22          1           0       -4.633535   -1.210620    0.001252
     23          1           0       -2.486968   -2.443056   -0.008902
     24          1           0       -0.002683   -2.150740    0.862711
     25          1           0       -0.003808   -2.140857   -0.856441
 ---------------------------------------------------------------------

 SCF Done:  E(RM062X) =  -539.760077924     A.U. after   15 cycles

 Excitation energies and oscillator strengths:

 Excited State   1:      Singlet-A      2.8266 eV  438.64 nm  f=0.0289  <S**2>=0.000
      47 -> 48         0.70425
 This state for optimization and/or second-order correction.
 Total Energy, E(TD-HF/TD-DFT) =  -539.656203780
 Copying the excited state density for this state as the 1-particle RhoCI density.

 The electronic state is 1-A.
 Alpha  occ. eigenvalues --  -10.77667 -10.73308 -10.73156 -10.72419 -10.72411
 Alpha  occ. eigenvalues --  -10.71383 -10.71302 -10.71002 -10.70979 -10.70976
 Alpha  occ. eigenvalues --  -10.69974 -10.69915 -10.69676 -10.69601  -1.16461
 Alpha  occ. eigenvalues --   -1.12518  -1.06973  -1.05719  -1.01365  -1.00175
 Alpha  occ. eigenvalues --   -0.95802  -0.91051  -0.86424  -0.85908  -0.83819
 Alpha  occ. eigenvalues --   -0.78404  -0.76032  -0.74428  -0.69563  -0.69236
 Alpha  occ. eigenvalues --   -0.68497  -0.68177  -0.68077  -0.64778  -0.64320
 Alpha  occ. eigenvalues --   -0.63041  -0.61824  -0.60022  -0.59716  -0.59079
 Alpha  occ. eigenvalues --   -0.56891  -0.55216  -0.54801  -0.52458  -0.46663
 Alpha  occ. eigenvalues --   -0.46053  -0.44523
 Alpha virt. eigenvalues --   -0.26093  -0.14643  -0.14092  -0.12743  -0.11179
 Alpha virt. eigenvalues --   -0.10088  -0.09234  -0.07993  -0.07966  -0.07477
 Alpha virt. eigenvalues --   -0.07203  -0.07142  -0.05642  -0.05581  -0.05327

 Mulliken charges:
               1
     1  C    0.096822
     2  C   -0.405154
     3  C   -0.439763
     4  C    0.016351
     5  C    0.015072
     6  C   -0.440899
     7  C   -0.412360
     8  C    0.091841
     9  C   -0.336485
    10  C    0.094625
    11  C   -0.622367
    12  C    0.678065
    13  C   -0.639365
    14  C    0.683736
    15  H    0.237041
    16  H    0.256449
    17  H    0.250122
    18  H    0.221861
    19  H    0.190655
    20  H    0.221709
    21  H    0.249351
    22  H    0.255954
    23  H    0.237413
    24  H    0.249995
    25  H    0.249333
 Sum of Mulliken charges =   1.00000

 Dipole moment (field-independent basis, Debye):
    X=              0.0144    Y=              0.1864    Z=             -0.0007  Tot=              0.1870
 Quadrupole moment (field-independent basis, Debye-Ang):
   XX=            -31.1595   YY=            -56.2626   ZZ=            -84.1257
   XY=              0.0080   XZ=             -0.0135   YZ=              0.0221

 Normal termination of Gaussian 16 at Thu Jul 28 13:12:57 2022.
