 Gaussian 16, Revision C.01,
 Gaussian 16:  ES64L-G16RevC.01  3-Jul-2019

 ---------------------------------------------------------------
 #n M062X/6-311++G(d,p) TD(NStates=1) EmpiricalDispersion=GD3 SP
 ---------------------------------------------------------------

 -------
 SP_-150
 -------
 Symbolic Z-matrix:
 Charge =  1 Multiplicity = 1

                         Standard orientation:
 ---------------------------------------------------------------------
 Center     Atomic      Atomic             Coordinates (Angstroms)
 Number     Number       Type             X           Y           Z
 ---------------------------------------------------------------------
      1          6           0       -2.492474   -1.360867    0.000090
      2          6           0       -3.712513   -0.672719    0.015149
      3          6           0       -3.704048    0.713208    0.016169
      4          6           0       -2.477292    1.407407   -0.004667
      5          6           0        2.476320    1.408056   -0.006124
      6          6           0        3.700874    0.714160    0.015343
      7          6           0        3.711654   -0.671778    0.015366
      8          6           0        2.491037   -1.360286    0.004022
      9          6           0        0.006791   -1.453408   -0.006521
     10          6           0       -0.000493    1.429555   -0.018309
     11          6           0       -1.250420   -0.677088   -0.014739
     12          6           0       -1.238918    0.730774   -0.004880
     13          6           0        1.250740   -0.676765   -0.015176
     14          6           0        1.239624    0.731117   -0.006959
     15          1           0       -2.488058   -2.443795   -0.028892
     16          1           0       -4.646339   -1.212495    0.008365
     17          1           0       -4.610624    1.271702    0.013055
     18          1           0       -2.481369    2.489661    0.022656
     19          1           0       -0.000480    2.510500   -0.001206
     20          1           0        2.480281    2.490327    0.019996
     21          1           0        4.606550    1.272904    0.010686
     22          1           0        4.644418   -1.211316    0.008519
     23          1           0        2.486736   -2.443226   -0.024057
     24          1           0        0.001485   -2.136542   -0.840384
     25          1           0        0.002097   -2.155909    0.878680
 ---------------------------------------------------------------------

 SCF Done:  E(RM062X) =  -539.757152156     A.U. after   15 cycles

 Excitation energies and oscillator strengths:

 Excited State   1:      Singlet-A      2.7949 eV  443.61 nm  f=0.0275  <S**2>=0.000
      47 -> 48         0.70427
 This state for optimization and/or second-order correction.
 Total Energy, E(TD-HF/TD-DFT) =  -539.654441775
 Copying the excited state density for this state as the 1-particle RhoCI density.

 The electronic state is 1-A.
 Alpha  occ. eigenvalues --  -10.77656 -10.73333 -10.73250 -10.72566 -10.72562
 Alpha  occ. eigenvalues --  -10.71549 -10.71505 -10.71107 -10.71092 -10.70983
 Alpha  occ. eigenvalues --  -10.70159 -10.70127 -10.69603 -10.69562  -1.16348
 Alpha  occ. eigenvalues --   -1.12147  -1.06786  -1.05827  -1.01035  -1.00190
 Alpha  occ. eigenvalues --   -0.95666  -0.91082  -0.86407  -0.85848  -0.83801
 Alpha  occ. eigenvalues --   -0.78389  -0.75998  -0.74354  -0.69589  -0.69352
 Alpha  occ. eigenvalues --   -0.68662  -0.68263  -0.68121  -0.64508  -0.64086
 Alpha  occ. eigenvalues --   -0.63206  -0.62063  -0.59874  -0.59441  -0.59168
 Alpha  occ. eigenvalues --   -0.56942  -0.55289  -0.54918  -0.52315  -0.46441
 Alpha  occ. eigenvalues --   -0.46024  -0.44355
 Alpha virt. eigenvalues --   -0.26065  -0.14856  -0.14143  -0.12970  -0.11177
 Alpha virt. eigenvalues --   -0.10079  -0.09207  -0.08020  -0.07911  -0.07465
 Alpha virt. eigenvalues --   -0.07232  -0.07139  -0.05648  -0.05583  -0.05364

 Mulliken charges:
               1
     1  C    0.069717
     2  C   -0.391046
     3  C   -0.441869
     4  C    0.059628
     5  C    0.057508
     6  C   -0.443446
     7  C   -0.396621
     8  C    0.066919
     9  C   -0.284400
    10  C    0.092740
    11  C   -0.614639
    12  C    0.612908
    13  C   -0.615622
    14  C    0.618608
    15  H    0.235820
    16  H    0.257088
    17  H    0.243769
    18  H    0.222632
    19  H    0.187632
    20  H    0.222640
    21  H    0.243230
    22  H    0.256989
    23  H    0.235752
    24  H    0.247743
    25  H    0.256320
 Sum of Mulliken charges =   1.00000

 Dipole moment (field-independent basis, Debye):
    X=             -0.0082    Y=              0.1919    Z=              0.0023  Tot=              0.1921
 Quadrupole moment (field-independent basis, Debye-Ang):
   XX=            -30.8561   YY=            -56.2589   ZZ=            -84.2391
   XY=             -0.0046   XZ=             -0.0074   YZ=              0.1455

 Normal termination of Gaussian 16 at Thu Jul 28 13:02:01 2022.
