 Gaussian 16, Revision C.01,
 Gaussian 16:  ES64L-G16RevC.01  3-Jul-2019

 ---------------------------------------------------------------
 #n M062X/6-311++G(d,p) TD(NStates=1) EmpiricalDispersion=GD3 SP
 ---------------------------------------------------------------

 ------
 SP_125
 ------
 Symbolic Z-matrix:
 Charge =  1 Multiplicity = 1

                         Standard orientation:
 ---------------------------------------------------------------------
 Center     Atomic      Atomic             Coordinates (Angstroms)
 Number     Number       Type             X           Y           Z
 ---------------------------------------------------------------------
      1          6           0        2.494428   -1.360980    0.004051
      2          6           0        3.682196   -0.672940    0.027966
      3          6           0        3.650026    0.713264    0.028845
      4          6           0        2.438208    1.408140   -0.009950
      5          6           0       -2.438054    1.408237   -0.009706
      6          6           0       -3.649496    0.713414    0.028985
      7          6           0       -3.682045   -0.672785    0.027934
      8          6           0       -2.494182   -1.360860    0.003402
      9          6           0       -0.001129   -1.453501   -0.012144
     10          6           0        0.000076    1.430419   -0.033497
     11          6           0        1.283065   -0.676625   -0.027472
     12          6           0        1.234109    0.731258   -0.010987
     13          6           0       -1.283120   -0.676573   -0.027392
     14          6           0       -1.234233    0.731302   -0.010638
     15          1           0        2.489420   -2.443248   -0.048210
     16          1           0        4.621105   -1.212515    0.015446
     17          1           0        4.610838    1.272102    0.021612
     18          1           0        2.443301    2.489794    0.038970
     19          1           0        0.000074    2.511053   -0.002106
     20          1           0       -2.443124    2.489886    0.039415
     21          1           0       -4.610161    1.272285    0.022017
     22          1           0       -4.620776   -1.212321    0.015427
     23          1           0       -2.489197   -2.443124   -0.049010
     24          1           0       -0.000239   -2.168345    0.894354
     25          1           0       -0.000341   -2.126183   -0.824299
 ---------------------------------------------------------------------

 SCF Done:  E(RM062X) =  -539.753044021     A.U. after   15 cycles

 Excitation energies and oscillator strengths:

 Excited State   1:      Singlet-A      2.8518 eV  434.75 nm  f=0.0306  <S**2>=0.000
      47 -> 48         0.70419
 This state for optimization and/or second-order correction.
 Total Energy, E(TD-HF/TD-DFT) =  -539.648240979
 Copying the excited state density for this state as the 1-particle RhoCI density.

 The electronic state is 1-A.
 Alpha  occ. eigenvalues --  -10.77699 -10.73178 -10.73164 -10.72223 -10.72221
 Alpha  occ. eigenvalues --  -10.71093 -10.71085 -10.70960 -10.70842 -10.70839
 Alpha  occ. eigenvalues --  -10.69747 -10.69741 -10.69685 -10.69679  -1.16643
 Alpha  occ. eigenvalues --   -1.13039  -1.07274  -1.05530  -1.01927  -1.00043
 Alpha  occ. eigenvalues --   -0.96005  -0.90992  -0.86464  -0.86011  -0.83834
 Alpha  occ. eigenvalues --   -0.78481  -0.76038  -0.74530  -0.69584  -0.69264
 Alpha  occ. eigenvalues --   -0.68555  -0.67943  -0.67661  -0.65172  -0.64659
 Alpha  occ. eigenvalues --   -0.62610  -0.61488  -0.60109  -0.60084  -0.58913
 Alpha  occ. eigenvalues --   -0.56852  -0.55057  -0.54585  -0.52667  -0.47079
 Alpha  occ. eigenvalues --   -0.45969  -0.44716
 Alpha virt. eigenvalues --   -0.26165  -0.14446  -0.14040  -0.12470  -0.11189
 Alpha virt. eigenvalues --   -0.10111  -0.09274  -0.08119  -0.07921  -0.07492
 Alpha virt. eigenvalues --   -0.07246  -0.07074  -0.05635  -0.05583  -0.05291

 Mulliken charges:
               1
     1  C    0.082820
     2  C   -0.416147
     3  C   -0.437343
     4  C    0.086554
     5  C    0.087301
     6  C   -0.437297
     7  C   -0.416627
     8  C    0.082834
     9  C   -0.371976
    10  C    0.077576
    11  C   -0.504471
    12  C    0.532791
    13  C   -0.506346
    14  C    0.532451
    15  H    0.234961
    16  H    0.254953
    17  H    0.257139
    18  H    0.217733
    19  H    0.189079
    20  H    0.217708
    21  H    0.257107
    22  H    0.254862
    23  H    0.235069
    24  H    0.251071
    25  H    0.238199
 Sum of Mulliken charges =   1.00000

 Dipole moment (field-independent basis, Debye):
    X=              0.0012    Y=              0.1719    Z=             -0.0038  Tot=              0.1719
 Quadrupole moment (field-independent basis, Debye-Ang):
   XX=            -31.5992   YY=            -56.2587   ZZ=            -83.9648
   XY=              0.0007   XZ=             -0.0012   YZ=              0.2619

 Normal termination of Gaussian 16 at Thu Jul 28 16:43:43 2022.
