 Gaussian 16, Revision C.01,
 Gaussian 16:  ES64L-G16RevC.01  3-Jul-2019

 ---------------------------------------------------------------
 #n M062X/6-311++G(d,p) TD(NStates=1) EmpiricalDispersion=GD3 SP
 ---------------------------------------------------------------

 ------
 SP_-75
 ------
 Symbolic Z-matrix:
 Charge =  1 Multiplicity = 1

                         Standard orientation:
 ---------------------------------------------------------------------
 Center     Atomic      Atomic             Coordinates (Angstroms)
 Number     Number       Type             X           Y           Z
 ---------------------------------------------------------------------
      1          6           0       -2.490948   -1.360619    0.004031
      2          6           0       -3.717158   -0.672338    0.022925
      3          6           0       -3.710968    0.713742    0.023458
      4          6           0       -2.483386    1.408139   -0.008399
      5          6           0        2.483876    1.407808   -0.007671
      6          6           0        3.712554    0.713261    0.023870
      7          6           0        3.717583   -0.672810    0.022814
      8          6           0        2.491662   -1.360897    0.002062
      9          6           0       -0.003397   -1.453457   -0.009968
     10          6           0        0.000250    1.430012   -0.027402
     11          6           0       -1.244922   -0.676672   -0.022554
     12          6           0       -1.240346    0.731212   -0.009362
     13          6           0        1.244763   -0.676835   -0.022339
     14          6           0        1.239996    0.731033   -0.008324
     15          1           0       -2.486729   -2.443204   -0.038572
     16          1           0       -4.649213   -1.211882    0.012669
     17          1           0       -4.607230    1.272550    0.017267
     18          1           0       -2.487189    2.490084    0.031415
     19          1           0        0.000243    2.510793   -0.001713
     20          1           0        2.487736    2.489741    0.032744
     21          1           0        4.609268    1.271940    0.018446
     22          1           0        4.650169   -1.212472    0.012588
     23          1           0        2.487388   -2.443473   -0.040992
     24          1           0       -0.000747   -2.128924   -0.830744
     25          1           0       -0.001053   -2.164628    0.888056
 ---------------------------------------------------------------------

 SCF Done:  E(RM062X) =  -539.753645857     A.U. after   15 cycles

 Excitation energies and oscillator strengths:

 Excited State   1:      Singlet-A      2.7779 eV  446.33 nm  f=0.0269  <S**2>=0.000
      47 -> 48         0.70427
 This state for optimization and/or second-order correction.
 Total Energy, E(TD-HF/TD-DFT) =  -539.651560530
 Copying the excited state density for this state as the 1-particle RhoCI density.

 The electronic state is 1-A.
 Alpha  occ. eigenvalues --  -10.77654 -10.73341 -10.73300 -10.72633 -10.72631
 Alpha  occ. eigenvalues --  -10.71618 -10.71596 -10.71153 -10.71145 -10.70979
 Alpha  occ. eigenvalues --  -10.70240 -10.70224 -10.69574 -10.69553  -1.16305
 Alpha  occ. eigenvalues --   -1.11986  -1.06716  -1.05868  -1.00927  -1.00159
 Alpha  occ. eigenvalues --   -0.95611  -0.91093  -0.86405  -0.85824  -0.83792
 Alpha  occ. eigenvalues --   -0.78394  -0.75976  -0.74321  -0.69623  -0.69439
 Alpha  occ. eigenvalues --   -0.68787  -0.68278  -0.68064  -0.64399  -0.63988
 Alpha  occ. eigenvalues --   -0.63240  -0.62157  -0.59794  -0.59318  -0.59199
 Alpha  occ. eigenvalues --   -0.56972  -0.55316  -0.54947  -0.52255  -0.46389
 Alpha  occ. eigenvalues --   -0.45964  -0.44275
 Alpha virt. eigenvalues --   -0.26059  -0.14967  -0.14168  -0.13076  -0.11177
 Alpha virt. eigenvalues --   -0.10077  -0.09196  -0.08048  -0.07879  -0.07459
 Alpha virt. eigenvalues --   -0.07253  -0.07131  -0.05650  -0.05584  -0.05383

 Mulliken charges:
               1
     1  C    0.048253
     2  C   -0.384559
     3  C   -0.442897
     4  C    0.087300
     5  C    0.088785
     6  C   -0.441922
     7  C   -0.381592
     8  C    0.049878
     9  C   -0.265231
    10  C    0.081111
    11  C   -0.581830
    12  C    0.563786
    13  C   -0.582750
    14  C    0.560502
    15  H    0.234677
    16  H    0.257333
    17  H    0.240549
    18  H    0.222367
    19  H    0.185748
    20  H    0.222352
    21  H    0.240842
    22  H    0.257348
    23  H    0.234771
    24  H    0.246408
    25  H    0.258772
 Sum of Mulliken charges =   1.00000

 Dipole moment (field-independent basis, Debye):
    X=              0.0042    Y=              0.1930    Z=              0.0039  Tot=              0.1930
 Quadrupole moment (field-independent basis, Debye-Ang):
   XX=            -30.7276   YY=            -56.2553   ZZ=            -84.2873
   XY=              0.0024   XZ=              0.0037   YZ=              0.2156

 Normal termination of Gaussian 16 at Thu Jul 28 14:14:37 2022.
