 Gaussian 16, Revision C.01,
 Gaussian 16:  ES64L-G16RevC.01  3-Jul-2019

 ---------------------------------------------------------------
 #n M062X/6-311++G(d,p) TD(NStates=1) EmpiricalDispersion=GD3 SP
 ---------------------------------------------------------------

 -----
 SP_50
 -----
 Symbolic Z-matrix:
 Charge =  1 Multiplicity = 1

                         Standard orientation:
 ---------------------------------------------------------------------
 Center     Atomic      Atomic             Coordinates (Angstroms)
 Number     Number       Type             X           Y           Z
 ---------------------------------------------------------------------
      1          6           0       -2.491632   -1.360140    0.002626
      2          6           0       -3.704598   -0.671549    0.005184
      3          6           0       -3.688473    0.714283    0.004859
      4          6           0       -2.467226    1.407875   -0.002493
      5          6           0        2.468186    1.407243   -0.001034
      6          6           0        3.691649    0.713344    0.005688
      7          6           0        3.705469   -0.672487    0.004974
      8          6           0        2.493079   -1.360755   -0.001298
      9          6           0       -0.006787   -1.453372   -0.002299
     10          6           0        0.000484    1.429230   -0.006068
     11          6           0       -1.258392   -0.676889   -0.005217
     12          6           0       -1.238428    0.730981   -0.002993
     13          6           0        1.258068   -0.677210   -0.004770
     14          6           0        1.237714    0.730658   -0.000911
     15          1           0       -2.487184   -2.443327   -0.006455
     16          1           0       -4.638661   -1.211125    0.002868
     17          1           0       -4.607002    1.272933    0.002798
     18          1           0       -2.471434    2.490371    0.005836
     19          1           0        0.000471    2.510292   -0.000344
     20          1           0        2.472515    2.489732    0.008497
     21          1           0        4.611072    1.271754    0.005182
     22          1           0        4.640595   -1.212301    0.002724
     23          1           0        2.488510   -2.443936   -0.011283
     24          1           0       -0.001472   -2.140390   -0.853224
     25          1           0       -0.002086   -2.151281    0.865915
 ---------------------------------------------------------------------

 SCF Done:  E(RM062X) =  -539.759678102     A.U. after   15 cycles

 Excitation energies and oscillator strengths:

 Excited State   1:      Singlet-A      2.8144 eV  440.53 nm  f=0.0283  <S**2>=0.000
      47 -> 48         0.70426
 This state for optimization and/or second-order correction.
 Total Energy, E(TD-HF/TD-DFT) =  -539.656250741
 Copying the excited state density for this state as the 1-particle RhoCI density.

 The electronic state is 1-A.
 Alpha  occ. eigenvalues --  -10.77661 -10.73298 -10.73215 -10.72479 -10.72475
 Alpha  occ. eigenvalues --  -10.71443 -10.71399 -10.71043 -10.71029 -10.70980
 Alpha  occ. eigenvalues --  -10.70044 -10.70012 -10.69633 -10.69592  -1.16410
 Alpha  occ. eigenvalues --   -1.12360  -1.06890  -1.05766  -1.01214  -1.00194
 Alpha  occ. eigenvalues --   -0.95743  -0.91066  -0.86414  -0.85883  -0.83811
 Alpha  occ. eigenvalues --   -0.78394  -0.76020  -0.74397  -0.69568  -0.69271
 Alpha  occ. eigenvalues --   -0.68539  -0.68223  -0.68130  -0.64660  -0.64218
 Alpha  occ. eigenvalues --   -0.63123  -0.61932  -0.59965  -0.59601  -0.59120
 Alpha  occ. eigenvalues --   -0.56910  -0.55243  -0.54866  -0.52397  -0.46555
 Alpha  occ. eigenvalues --   -0.46056  -0.44455
 Alpha virt. eigenvalues --   -0.26079  -0.14726  -0.14112  -0.12837  -0.11178
 Alpha virt. eigenvalues --   -0.10083  -0.09222  -0.07990  -0.07953  -0.07472
 Alpha virt. eigenvalues --   -0.07207  -0.07149  -0.05645  -0.05582  -0.05342

 Mulliken charges:
               1
     1  C    0.086553
     2  C   -0.405133
     3  C   -0.440886
     4  C    0.020183
     5  C    0.021507
     6  C   -0.439918
     7  C   -0.400528
     8  C    0.089384
     9  C   -0.322162
    10  C    0.092703
    11  C   -0.641893
    12  C    0.681455
    13  C   -0.635913
    14  C    0.677161
    15  H    0.237112
    16  H    0.256442
    17  H    0.246906
    18  H    0.222332
    19  H    0.189728
    20  H    0.222372
    21  H    0.247380
    22  H    0.256636
    23  H    0.237024
    24  H    0.249613
    25  H    0.251942
 Sum of Mulliken charges =   1.00000

 Dipole moment (field-independent basis, Debye):
    X=              0.0080    Y=              0.1894    Z=             -0.0001  Tot=              0.1896
 Quadrupole moment (field-independent basis, Debye-Ang):
   XX=            -31.0290   YY=            -56.2618   ZZ=            -84.1742
   XY=              0.0045   XZ=              0.0074   YZ=              0.0471

 Normal termination of Gaussian 16 at Thu Jul 28 15:56:22 2022.
