 Gaussian 16, Revision C.01,
 Gaussian 16:  ES64L-G16RevC.01  3-Jul-2019

 ---------------------------------------------------------------
 #n M062X/6-311++G(d,p) TD(NStates=1) EmpiricalDispersion=GD3 SP
 ---------------------------------------------------------------

 -----
 SP_50
 -----
 Symbolic Z-matrix:
 Charge =  1 Multiplicity = 1

                         Standard orientation:
 ---------------------------------------------------------------------
 Center     Atomic      Atomic             Coordinates (Angstroms)
 Number     Number       Type             X           Y           Z
 ---------------------------------------------------------------------
      1          6           0        2.494073   -1.360801    0.003346
      2          6           0        3.689395   -0.672576    0.017838
      3          6           0        3.662957    0.713403    0.018199
      4          6           0        2.447464    1.407653   -0.006614
      5          6           0       -2.446998    1.407950   -0.005884
      6          6           0       -3.661366    0.713859    0.018616
      7          6           0       -3.688946   -0.672110    0.017740
      8          6           0       -2.493338   -1.360457    0.001393
      9          6           0       -0.003390   -1.453422   -0.007761
     10          6           0        0.000232    1.429687   -0.021314
     11          6           0        1.275360   -0.676955   -0.017577
     12          6           0        1.235188    0.730927   -0.007400
     13          6           0       -1.275525   -0.676798   -0.017343
     14          6           0       -1.235554    0.731067   -0.006356
     15          1           0        2.489193   -2.443636   -0.029742
     16          1           0        4.627181   -1.212276    0.009853
     17          1           0        4.611065    1.272005    0.013286
     18          1           0        2.452329    2.489826    0.024288
     19          1           0        0.000225    2.510585   -0.001331
     20          1           0       -2.451796    2.490114    0.025620
     21          1           0       -4.609034    1.272567    0.014494
     22          1           0       -4.626200   -1.211692    0.009793
     23          1           0       -2.488525   -2.443285   -0.032147
     24          1           0       -0.000722   -2.160455    0.881760
     25          1           0       -0.001030   -2.132315   -0.837181
 ---------------------------------------------------------------------

 SCF Done:  E(RM062X) =  -539.757535222     A.U. after   15 cycles

 Excitation energies and oscillator strengths:

 Excited State   1:      Singlet-A      2.8446 eV  435.85 nm  f=0.0299  <S**2>=0.000
      47 -> 48         0.70422
 This state for optimization and/or second-order correction.
 Total Energy, E(TD-HF/TD-DFT) =  -539.652996304
 Copying the excited state density for this state as the 1-particle RhoCI density.

 The electronic state is 1-A.
 Alpha  occ. eigenvalues --  -10.77684 -10.73213 -10.73171 -10.72297 -10.72295
 Alpha  occ. eigenvalues --  -10.71200 -10.71178 -10.70969 -10.70902 -10.70895
 Alpha  occ. eigenvalues --  -10.69792 -10.69776 -10.69708 -10.69688  -1.16567
 Alpha  occ. eigenvalues --   -1.12832  -1.07150  -1.05606  -1.01695  -1.00108
 Alpha  occ. eigenvalues --   -0.95922  -0.91017  -0.86444  -0.85969  -0.83829
 Alpha  occ. eigenvalues --   -0.78443  -0.76041  -0.74490  -0.69567  -0.69230
 Alpha  occ. eigenvalues --   -0.68520  -0.68047  -0.67845  -0.65016  -0.64522
 Alpha  occ. eigenvalues --   -0.62803  -0.61623  -0.60094  -0.59942  -0.58985
 Alpha  occ. eigenvalues --   -0.56864  -0.55119  -0.54688  -0.52583  -0.46907
 Alpha  occ. eigenvalues --   -0.46012  -0.44646
 Alpha virt. eigenvalues --   -0.26132  -0.14509  -0.14057  -0.12572  -0.11184
 Alpha virt. eigenvalues --   -0.10100  -0.09257  -0.08066  -0.07936  -0.07487
 Alpha virt. eigenvalues --   -0.07224  -0.07104  -0.05638  -0.05582  -0.05303

 Mulliken charges:
               1
     1  C    0.088838
     2  C   -0.415922
     3  C   -0.441256
     4  C    0.059453
     5  C    0.060628
     6  C   -0.441357
     7  C   -0.417447
     8  C    0.088179
     9  C   -0.343838
    10  C    0.095807
    11  C   -0.557214
    12  C    0.586056
    13  C   -0.563162
    14  C    0.585785
    15  H    0.235740
    16  H    0.255656
    17  H    0.254483
    18  H    0.219888
    19  H    0.190425
    20  H    0.219818
    21  H    0.254338
    22  H    0.255439
    23  H    0.235970
    24  H    0.251051
    25  H    0.242639
 Sum of Mulliken charges =   1.00000

 Dipole moment (field-independent basis, Debye):
    X=              0.0038    Y=              0.1787    Z=             -0.0016  Tot=              0.1788
 Quadrupole moment (field-independent basis, Debye-Ang):
   XX=            -31.4203   YY=            -56.2618   ZZ=            -84.0292
   XY=              0.0021   XZ=             -0.0036   YZ=              0.1672

 Normal termination of Gaussian 16 at Thu Jul 28 15:42:05 2022.
