 Gaussian 16, Revision C.01,
 Gaussian 16:  ES64L-G16RevC.01  3-Jul-2019

 ---------------------------------------------------------------
 #n M062X/6-311++G(d,p) TD(NStates=1) EmpiricalDispersion=GD3 SP
 ---------------------------------------------------------------

 ------
 SP_-25
 ------
 Symbolic Z-matrix:
 Charge =  1 Multiplicity = 1

                         Standard orientation:
 ---------------------------------------------------------------------
 Center     Atomic      Atomic             Coordinates (Angstroms)
 Number     Number       Type             X           Y           Z
 ---------------------------------------------------------------------
      1          6           0       -2.492085   -1.360417    0.001345
      2          6           0       -3.706723   -0.671976    0.007643
      3          6           0       -3.692896    0.713872    0.007819
      4          6           0       -2.469901    1.407639   -0.002802
      5          6           0        2.470061    1.407533   -0.002559
      6          6           0        3.693426    0.713715    0.007957
      7          6           0        3.706868   -0.672132    0.007608
      8          6           0        2.492325   -1.360518    0.000690
      9          6           0       -0.001131   -1.453379   -0.003321
     10          6           0        0.000081    1.429280   -0.009138
     11          6           0       -1.256344   -0.677004   -0.007520
     12          6           0       -1.238430    0.730867   -0.003123
     13          6           0        1.256291   -0.677057   -0.007446
     14          6           0        1.238312    0.730812   -0.002776
     15          1           0       -2.487623   -2.443563   -0.012857
     16          1           0       -4.640905   -1.211645    0.004224
     17          1           0       -4.608585    1.272436    0.005753
     18          1           0       -2.474097    2.490096    0.010470
     19          1           0        0.000079    2.510325   -0.000575
     20          1           0        2.474278    2.489989    0.010913
     21          1           0        4.609264    1.272239    0.006150
     22          1           0        4.641226   -1.211841    0.004200
     23          1           0        2.487844   -2.443663   -0.013662
     24          1           0       -0.000246   -2.139946   -0.850008
     25          1           0       -0.000348   -2.151847    0.869121
 ---------------------------------------------------------------------

 SCF Done:  E(RM062X) =  -539.759297696     A.U. after   15 cycles

 Excitation energies and oscillator strengths:

 Excited State   1:      Singlet-A      2.8099 eV  441.24 nm  f=0.0281  <S**2>=0.000
      47 -> 48         0.70427
 This state for optimization and/or second-order correction.
 Total Energy, E(TD-HF/TD-DFT) =  -539.656036023
 Copying the excited state density for this state as the 1-particle RhoCI density.

 The electronic state is 1-A.
 Alpha  occ. eigenvalues --  -10.77660 -10.73272 -10.73258 -10.72500 -10.72498
 Alpha  occ. eigenvalues --  -10.71451 -10.71444 -10.71053 -10.71051 -10.70981
 Alpha  occ. eigenvalues --  -10.70059 -10.70054 -10.69608 -10.69601  -1.16394
 Alpha  occ. eigenvalues --   -1.12307  -1.06863  -1.05780  -1.01166  -1.00197
 Alpha  occ. eigenvalues --   -0.95724  -0.91070  -0.86411  -0.85875  -0.83809
 Alpha  occ. eigenvalues --   -0.78392  -0.76015  -0.74386  -0.69571  -0.69288
 Alpha  occ. eigenvalues --   -0.68563  -0.68235  -0.68135  -0.64622  -0.64184
 Alpha  occ. eigenvalues --   -0.63146  -0.61968  -0.59943  -0.59562  -0.59132
 Alpha  occ. eigenvalues --   -0.56917  -0.55251  -0.54887  -0.52376  -0.46522
 Alpha  occ. eigenvalues --   -0.46052  -0.44431
 Alpha virt. eigenvalues --   -0.26075  -0.14757  -0.14119  -0.12869  -0.11178
 Alpha virt. eigenvalues --   -0.10082  -0.09218  -0.07997  -0.07943  -0.07471
 Alpha virt. eigenvalues --   -0.07212  -0.07148  -0.05645  -0.05582  -0.05348

 Mulliken charges:
               1
     1  C    0.083998
     2  C   -0.401517
     3  C   -0.441134
     4  C    0.028185
     5  C    0.028433
     6  C   -0.440947
     7  C   -0.400705
     8  C    0.084460
     9  C   -0.312917
    10  C    0.093743
    11  C   -0.636851
    12  C    0.668080
    13  C   -0.636068
    14  C    0.667307
    15  H    0.236825
    16  H    0.256648
    17  H    0.246210
    18  H    0.222474
    19  H    0.189277
    20  H    0.222479
    21  H    0.246292
    22  H    0.256677
    23  H    0.236817
    24  H    0.249124
    25  H    0.253109
 Sum of Mulliken charges =   1.00000

 Dipole moment (field-independent basis, Debye):
    X=              0.0013    Y=              0.1902    Z=              0.0005  Tot=              0.1902
 Quadrupole moment (field-independent basis, Debye-Ang):
   XX=            -30.9856   YY=            -56.2613   ZZ=            -84.1904
   XY=              0.0008   XZ=              0.0012   YZ=              0.0721

 Normal termination of Gaussian 16 at Thu Jul 28 14:49:55 2022.
