 Gaussian 16, Revision C.01,
 Gaussian 16:  ES64L-G16RevC.01  3-Jul-2019

 ---------------------------------------------------------------
 #n M062X/6-311++G(d,p) TD(NStates=1) EmpiricalDispersion=GD3 SP
 ---------------------------------------------------------------

 -----
 SP_25
 -----
 Symbolic Z-matrix:
 Charge =  1 Multiplicity = 1

                         Standard orientation:
 ---------------------------------------------------------------------
 Center     Atomic      Atomic             Coordinates (Angstroms)
 Number     Number       Type             X           Y           Z
 ---------------------------------------------------------------------
      1          6           0       -2.491873   -1.360242    0.001977
      2          6           0       -3.704743   -0.671705    0.005151
      3          6           0       -3.689002    0.714127    0.004992
      4          6           0       -2.467386    1.407770   -0.002259
      5          6           0        2.468026    1.407349   -0.001286
      6          6           0        3.691120    0.713501    0.005544
      7          6           0        3.705323   -0.672331    0.005011
      8          6           0        2.492838   -1.360652   -0.000639
      9          6           0       -0.004525   -1.453373   -0.002267
     10          6           0        0.000323    1.429230   -0.006077
     11          6           0       -1.258338   -0.676943   -0.005141
     12          6           0       -1.238309    0.730927   -0.002651
     13          6           0        1.258122   -0.677157   -0.004843
     14          6           0        1.237833    0.730712   -0.001263
     15          1           0       -2.487404   -2.443429   -0.007249
     16          1           0       -4.638984   -1.211321    0.002849
     17          1           0       -4.607680    1.272737    0.003187
     18          1           0       -2.471615    2.490264    0.006265
     19          1           0        0.000314    2.510292   -0.000359
     20          1           0        2.472335    2.489839    0.008039
     21          1           0        4.610394    1.271951    0.004776
     22          1           0        4.640273   -1.212105    0.002752
     23          1           0        2.488288   -2.443835   -0.010467
     24          1           0       -0.000982   -2.140945   -0.853217
     25          1           0       -0.001391   -2.150727    0.865927
 ---------------------------------------------------------------------

 SCF Done:  E(RM062X) =  -539.759714188     A.U. after   15 cycles

 Excitation energies and oscillator strengths:

 Excited State   1:      Singlet-A      2.8144 eV  440.53 nm  f=0.0283  <S**2>=0.000
      47 -> 48         0.70427
 This state for optimization and/or second-order correction.
 Total Energy, E(TD-HF/TD-DFT) =  -539.656286116
 Copying the excited state density for this state as the 1-particle RhoCI density.

 The electronic state is 1-A.
 Alpha  occ. eigenvalues --  -10.77661 -10.73284 -10.73229 -10.72479 -10.72476
 Alpha  occ. eigenvalues --  -10.71436 -10.71406 -10.71041 -10.71031 -10.70980
 Alpha  occ. eigenvalues --  -10.70039 -10.70018 -10.69626 -10.69599  -1.16410
 Alpha  occ. eigenvalues --   -1.12360  -1.06890  -1.05765  -1.01214  -1.00195
 Alpha  occ. eigenvalues --   -0.95743  -0.91066  -0.86414  -0.85883  -0.83811
 Alpha  occ. eigenvalues --   -0.78394  -0.76020  -0.74397  -0.69567  -0.69271
 Alpha  occ. eigenvalues --   -0.68539  -0.68223  -0.68130  -0.64660  -0.64217
 Alpha  occ. eigenvalues --   -0.63122  -0.61934  -0.59964  -0.59601  -0.59119
 Alpha  occ. eigenvalues --   -0.56910  -0.55241  -0.54870  -0.52397  -0.46555
 Alpha  occ. eigenvalues --   -0.46056  -0.44455
 Alpha virt. eigenvalues --   -0.26079  -0.14726  -0.14112  -0.12837  -0.11178
 Alpha virt. eigenvalues --   -0.10083  -0.09222  -0.07990  -0.07953  -0.07472
 Alpha virt. eigenvalues --   -0.07207  -0.07149  -0.05644  -0.05582  -0.05342

 Mulliken charges:
               1
     1  C    0.087073
     2  C   -0.404405
     3  C   -0.440751
     4  C    0.020512
     5  C    0.021394
     6  C   -0.440105
     7  C   -0.401332
     8  C    0.088950
     9  C   -0.322101
    10  C    0.092799
    11  C   -0.640974
    12  C    0.680652
    13  C   -0.636990
    14  C    0.677790
    15  H    0.237098
    16  H    0.256473
    17  H    0.246985
    18  H    0.222340
    19  H    0.189724
    20  H    0.222367
    21  H    0.247302
    22  H    0.256603
    23  H    0.237039
    24  H    0.249557
    25  H    0.252001
 Sum of Mulliken charges =   1.00000

 Dipole moment (field-independent basis, Debye):
    X=              0.0053    Y=              0.1894    Z=              0.0000  Tot=              0.1895
 Quadrupole moment (field-independent basis, Debye-Ang):
   XX=            -31.0290   YY=            -56.2618   ZZ=            -84.1742
   XY=              0.0030   XZ=              0.0049   YZ=              0.0474

 Normal termination of Gaussian 16 at Thu Jul 28 15:33:41 2022.
