 Gaussian 16, Revision C.01,
 Gaussian 16:  ES64L-G16RevC.01  3-Jul-2019

 ---------------------------------------------------------------
 #n M062X/6-311++G(d,p) TD(NStates=1) EmpiricalDispersion=GD3 SP
 ---------------------------------------------------------------

 ------
 SP_-25
 ------
 Symbolic Z-matrix:
 Charge =  1 Multiplicity = 1

                         Standard orientation:
 ---------------------------------------------------------------------
 Center     Atomic      Atomic             Coordinates (Angstroms)
 Number     Number       Type             X           Y           Z
 ---------------------------------------------------------------------
      1          6           0       -2.491008   -1.360390    0.004003
      2          6           0       -3.713489   -0.671951    0.017879
      3          6           0       -3.704239    0.714029    0.018069
      4          6           0       -2.478675    1.408073   -0.006847
      5          6           0        2.479487    1.407529   -0.005633
      6          6           0        3.706883    0.713233    0.018757
      7          6           0        3.714202   -0.672735    0.017697
      8          6           0        2.492203   -1.360868    0.000725
      9          6           0       -0.005660   -1.453421   -0.007794
     10          6           0        0.000413    1.429687   -0.021305
     11          6           0       -1.248801   -0.676741   -0.017643
     12          6           0       -1.239864    0.731142   -0.007738
     13          6           0        1.248534   -0.677011   -0.017280
     14          6           0        1.239277    0.730852   -0.006007
     15          1           0       -2.486734   -2.443228   -0.028940
     16          1           0       -4.646016   -1.211493    0.009884
     17          1           0       -4.606777    1.272789    0.012913
     18          1           0       -2.482583    2.490250    0.023861
     19          1           0        0.000402    2.510585   -0.001317
     20          1           0        2.483491    2.489690    0.026077
     21          1           0        4.610172    1.271782    0.014884
     22          1           0        4.647615   -1.212476    0.009753
     23          1           0        2.487834   -2.443693   -0.032970
     24          1           0       -0.001240   -2.131761   -0.837182
     25          1           0       -0.001750   -2.161009    0.881741
 ---------------------------------------------------------------------

 SCF Done:  E(RM062X) =  -539.756026212     A.U. after   15 cycles

 Excitation energies and oscillator strengths:

 Excited State   1:      Singlet-A      2.7894 eV  444.48 nm  f=0.0273  <S**2>=0.000
      47 -> 48         0.70427
 This state for optimization and/or second-order correction.
 Total Energy, E(TD-HF/TD-DFT) =  -539.653517435
 Copying the excited state density for this state as the 1-particle RhoCI density.

 The electronic state is 1-A.
 Alpha  occ. eigenvalues --  -10.77655 -10.73335 -10.73267 -10.72588 -10.72585
 Alpha  occ. eigenvalues --  -10.71572 -10.71535 -10.71122 -10.71110 -10.70980
 Alpha  occ. eigenvalues --  -10.70186 -10.70160 -10.69593 -10.69559  -1.16333
 Alpha  occ. eigenvalues --   -1.12093  -1.06762  -1.05842  -1.00996  -1.00183
 Alpha  occ. eigenvalues --   -0.95648  -0.91087  -0.86406  -0.85840  -0.83798
 Alpha  occ. eigenvalues --   -0.78391  -0.75991  -0.74343  -0.69602  -0.69379
 Alpha  occ. eigenvalues --   -0.68707  -0.68269  -0.68099  -0.64471  -0.64053
 Alpha  occ. eigenvalues --   -0.63220  -0.62095  -0.59848  -0.59400  -0.59179
 Alpha  occ. eigenvalues --   -0.56951  -0.55298  -0.54930  -0.52295  -0.46421
 Alpha  occ. eigenvalues --   -0.46008  -0.44329
 Alpha virt. eigenvalues --   -0.26063  -0.14892  -0.14151  -0.13005  -0.11177
 Alpha virt. eigenvalues --   -0.10078  -0.09203  -0.08030  -0.07899  -0.07463
 Alpha virt. eigenvalues --   -0.07237  -0.07139  -0.05648  -0.05583  -0.05371

 Mulliken charges:
               1
     1  C    0.060490
     2  C   -0.393022
     3  C   -0.443490
     4  C    0.067988
     5  C    0.069987
     6  C   -0.442063
     7  C   -0.388242
     8  C    0.062959
     9  C   -0.276128
    10  C    0.089907
    11  C   -0.604633
    12  C    0.599555
    13  C   -0.604701
    14  C    0.594513
    15  H    0.235380
    16  H    0.257119
    17  H    0.242335
    18  H    0.222607
    19  H    0.187028
    20  H    0.222593
    21  H    0.242798
    22  H    0.257181
    23  H    0.235470
    24  H    0.247496
    25  H    0.256873
 Sum of Mulliken charges =   1.00000

 Dipole moment (field-independent basis, Debye):
    X=              0.0069    Y=              0.1924    Z=              0.0022  Tot=              0.1926
 Quadrupole moment (field-independent basis, Debye-Ang):
   XX=            -30.8125   YY=            -56.2576   ZZ=            -84.2551
   XY=              0.0039   XZ=              0.0062   YZ=              0.1675

 Normal termination of Gaussian 16 at Thu Jul 28 14:56:38 2022.
