 Gaussian 16, Revision C.01,
 Gaussian 16:  ES64L-G16RevC.01  3-Jul-2019

 ---------------------------------------------------------------
 #n M062X/6-311++G(d,p) TD(NStates=1) EmpiricalDispersion=GD3 SP
 ---------------------------------------------------------------

 ------
 SP_125
 ------
 Symbolic Z-matrix:
 Charge =  1 Multiplicity = 1

                         Standard orientation:
 ---------------------------------------------------------------------
 Center     Atomic      Atomic             Coordinates (Angstroms)
 Number     Number       Type             X           Y           Z
 ---------------------------------------------------------------------
      1          6           0        2.493066   -1.360350    0.000747
      2          6           0        3.690635   -0.671938    0.015189
      3          6           0        3.664201    0.713989    0.016039
      4          6           0        2.449194    1.407931   -0.004900
      5          6           0       -2.449818    1.407532   -0.005874
      6          6           0       -3.666321    0.713380    0.015482
      7          6           0       -3.691231   -0.672560    0.015321
      8          6           0       -2.494045   -1.360803    0.003352
      9          6           0        0.004520   -1.453409   -0.006549
     10          6           0       -0.000310    1.429555   -0.018300
     11          6           0        1.273639   -0.676822   -0.014804
     12          6           0        1.235914    0.731040   -0.005217
     13          6           0       -1.273421   -0.677032   -0.015114
     14          6           0       -1.235428    0.730851   -0.006609
     15          1           0        2.488302   -2.443280   -0.028090
     16          1           0        4.627475   -1.211516    0.008395
     17          1           0        4.608582    1.272680    0.012683
     18          1           0        2.453919    2.490189    0.022229
     19          1           0       -0.000302    2.510500   -0.001191
     20          1           0       -2.454630    2.489799    0.020453
     21          1           0       -4.611292    1.271926    0.011074
     22          1           0       -4.628781   -1.212295    0.008477
     23          1           0       -2.489191   -2.443741   -0.024883
     24          1           0        0.000965   -2.156464    0.878664
     25          1           0        0.001375   -2.135988   -0.840386
 ---------------------------------------------------------------------

 SCF Done:  E(RM062X) =  -539.758403518     A.U. after   15 cycles

 Excitation energies and oscillator strengths:

 Excited State   1:      Singlet-A      2.8423 eV  436.21 nm  f=0.0298  <S**2>=0.000
      47 -> 48         0.70423
 This state for optimization and/or second-order correction.
 Total Energy, E(TD-HF/TD-DFT) =  -539.653951728
 Copying the excited state density for this state as the 1-particle RhoCI density.

 The electronic state is 1-A.
 Alpha  occ. eigenvalues --  -10.77681 -10.73226 -10.73170 -10.72317 -10.72314
 Alpha  occ. eigenvalues --  -10.71229 -10.71199 -10.70973 -10.70918 -10.70909
 Alpha  occ. eigenvalues --  -10.69821 -10.69800 -10.69701 -10.69674  -1.16548
 Alpha  occ. eigenvalues --   -1.12780  -1.07119  -1.05624  -1.01638  -1.00122
 Alpha  occ. eigenvalues --   -0.95901  -0.91022  -0.86440  -0.85959  -0.83828
 Alpha  occ. eigenvalues --   -0.78434  -0.76040  -0.74480  -0.69562  -0.69226
 Alpha  occ. eigenvalues --   -0.68510  -0.68071  -0.67893  -0.64976  -0.64488
 Alpha  occ. eigenvalues --   -0.62847  -0.61657  -0.60087  -0.59905  -0.59002
 Alpha  occ. eigenvalues --   -0.56868  -0.55134  -0.54711  -0.52562  -0.46865
 Alpha  occ. eigenvalues --   -0.46022  -0.44627
 Alpha virt. eigenvalues --   -0.26124  -0.14528  -0.14062  -0.12599  -0.11183
 Alpha virt. eigenvalues --   -0.10098  -0.09253  -0.08053  -0.07941  -0.07485
 Alpha virt. eigenvalues --   -0.07221  -0.07110  -0.05638  -0.05581  -0.05306

 Mulliken charges:
               1
     1  C    0.089954
     2  C   -0.417489
     3  C   -0.441946
     4  C    0.052415
     5  C    0.051250
     6  C   -0.441750
     7  C   -0.415392
     8  C    0.091095
     9  C   -0.339857
    10  C    0.098750
    11  C   -0.578603
    12  C    0.602705
    13  C   -0.570710
    14  C    0.602683
    15  H    0.236235
    16  H    0.255540
    17  H    0.253584
    18  H    0.220218
    19  H    0.190627
    20  H    0.220307
    21  H    0.253793
    22  H    0.255809
    23  H    0.235961
    24  H    0.251248
    25  H    0.243571
 Sum of Mulliken charges =   1.00000

 Dipole moment (field-independent basis, Debye):
    X=             -0.0051    Y=              0.1802    Z=             -0.0007  Tot=              0.1802
 Quadrupole moment (field-independent basis, Debye-Ang):
   XX=            -31.3770   YY=            -56.2624   ZZ=            -84.0454
   XY=             -0.0028   XZ=              0.0049   YZ=              0.1445

 Normal termination of Gaussian 16 at Thu Jul 28 16:51:37 2022.
