 Gaussian 16, Revision C.01,
 Gaussian 16:  ES64L-G16RevC.01  3-Jul-2019

 ---------------------------------------------------------------
 #n M062X/6-311++G(d,p) TD(NStates=1) EmpiricalDispersion=GD3 SP
 ---------------------------------------------------------------

 ------
 SP_-50
 ------
 Symbolic Z-matrix:
 Charge =  1 Multiplicity = 1

                         Standard orientation:
 ---------------------------------------------------------------------
 Center     Atomic      Atomic             Coordinates (Angstroms)
 Number     Number       Type             X           Y           Z
 ---------------------------------------------------------------------
      1          6           0        2.493412   -1.360702    0.001958
      2          6           0        3.700112   -0.672387    0.002623
      3          6           0        3.682085    0.713438    0.002295
      4          6           0        2.461277    1.407285   -0.001481
      5          6           0       -2.460485    1.407801   -0.000265
      6          6           0       -3.679437    0.714213    0.002988
      7          6           0       -3.699379   -0.671606    0.002452
      8          6           0       -2.492199   -1.360169   -0.001307
      9          6           0       -0.005654   -1.453369   -0.001178
     10          6           0        0.000398    1.429199   -0.003025
     11          6           0        1.263832   -0.677194   -0.002688
     12          6           0        1.236871    0.730679   -0.001839
     13          6           0       -1.264103   -0.676928   -0.002310
     14          6           0       -1.237471    0.730936   -0.000102
     15          1           0        2.488738   -2.443910   -0.002438
     16          1           0        4.636125   -1.212184    0.001449
     17          1           0        4.611069    1.271864    0.001005
     18          1           0        2.465785    2.489800    0.002489
     19          1           0        0.000387    2.510272   -0.000157
     20          1           0       -2.464889    2.490315    0.004707
     21          1           0       -4.607679    1.272831    0.003001
     22          1           0       -4.634506   -1.211206    0.001336
     23          1           0       -2.487630   -2.443376   -0.006455
     24          1           0       -0.001220   -2.149077    0.862743
     25          1           0       -0.001731   -2.142522   -0.856416
 ---------------------------------------------------------------------

 SCF Done:  E(RM062X) =  -539.760222998     A.U. after   15 cycles

 Excitation energies and oscillator strengths:

 Excited State   1:      Singlet-A      2.8266 eV  438.63 nm  f=0.0289  <S**2>=0.000
      47 -> 48         0.70426
 This state for optimization and/or second-order correction.
 Total Energy, E(TD-HF/TD-DFT) =  -539.656345732
 Copying the excited state density for this state as the 1-particle RhoCI density.

 The electronic state is 1-A.
 Alpha  occ. eigenvalues --  -10.77667 -10.73267 -10.73198 -10.72417 -10.72413
 Alpha  occ. eigenvalues --  -10.71361 -10.71324 -10.70995 -10.70983 -10.70978
 Alpha  occ. eigenvalues --  -10.69958 -10.69931 -10.69655 -10.69621  -1.16460
 Alpha  occ. eigenvalues --   -1.12518  -1.06973  -1.05715  -1.01365  -1.00177
 Alpha  occ. eigenvalues --   -0.95802  -0.91051  -0.86422  -0.85911  -0.83818
 Alpha  occ. eigenvalues --   -0.78404  -0.76031  -0.74429  -0.69560  -0.69236
 Alpha  occ. eigenvalues --   -0.68497  -0.68176  -0.68077  -0.64778  -0.64318
 Alpha  occ. eigenvalues --   -0.63036  -0.61831  -0.60021  -0.59717  -0.59079
 Alpha  occ. eigenvalues --   -0.56891  -0.55204  -0.54817  -0.52458  -0.46663
 Alpha  occ. eigenvalues --   -0.46054  -0.44524
 Alpha virt. eigenvalues --   -0.26093  -0.14642  -0.14091  -0.12743  -0.11179
 Alpha virt. eigenvalues --   -0.10088  -0.09234  -0.07992  -0.07966  -0.07477
 Alpha virt. eigenvalues --   -0.07204  -0.07142  -0.05642  -0.05581  -0.05327

 Mulliken charges:
               1
     1  C    0.095649
     2  C   -0.407320
     3  C   -0.440171
     4  C    0.016346
     5  C    0.015763
     6  C   -0.440691
     7  C   -0.410602
     8  C    0.093361
     9  C   -0.336087
    10  C    0.094986
    11  C   -0.627383
    12  C    0.679408
    13  C   -0.635110
    14  C    0.681991
    15  H    0.237149
    16  H    0.256310
    17  H    0.249914
    18  H    0.221822
    19  H    0.190637
    20  H    0.221753
    21  H    0.249563
    22  H    0.256085
    23  H    0.237317
    24  H    0.250160
    25  H    0.249148
 Sum of Mulliken charges =   1.00000

 Dipole moment (field-independent basis, Debye):
    X=              0.0065    Y=              0.1865    Z=             -0.0003  Tot=              0.1867
 Quadrupole moment (field-independent basis, Debye-Ang):
   XX=            -31.1594   YY=            -56.2629   ZZ=            -84.1257
   XY=              0.0036   XZ=             -0.0061   YZ=              0.0232

 Normal termination of Gaussian 16 at Thu Jul 28 14:21:19 2022.
