 Gaussian 16, Revision C.01,
 Gaussian 16:  ES64L-G16RevC.01  3-Jul-2019

 ---------------------------------------------------------------
 #n M062X/6-311++G(d,p) TD(NStates=1) EmpiricalDispersion=GD3 SP
 ---------------------------------------------------------------

 -----
 SP_75
 -----
 Symbolic Z-matrix:
 Charge =  1 Multiplicity = 1

                         Standard orientation:
 ---------------------------------------------------------------------
 Center     Atomic      Atomic             Coordinates (Angstroms)
 Number     Number       Type             X           Y           Z
 ---------------------------------------------------------------------
      1          6           0        2.492740   -1.360303    0.000050
      2          6           0        3.695999   -0.671820    0.007579
      3          6           0        3.673766    0.714024    0.008086
      4          6           0        2.456095    1.407739   -0.002334
      5          6           0       -2.456567    1.407434   -0.003064
      6          6           0       -3.675356    0.713563    0.007670
      7          6           0       -3.696442   -0.672288    0.007680
      8          6           0       -2.493470   -1.360631    0.002007
      9          6           0        0.003391   -1.453379   -0.003259
     10          6           0       -0.000236    1.429280   -0.009156
     11          6           0        1.267874   -0.676951   -0.007364
     12          6           0        1.236752    0.730914   -0.002439
     13          6           0       -1.267711   -0.677110   -0.007593
     14          6           0       -1.236390    0.730765   -0.003481
     15          1           0        2.488076   -2.443448   -0.014442
     16          1           0        4.631953   -1.211450    0.004189
     17          1           0        4.608583    1.272625    0.006535
     18          1           0        2.460644    2.490194    0.011328
     19          1           0       -0.000230    2.510325   -0.000604
     20          1           0       -2.461180    2.489892    0.009997
     21          1           0       -4.610616    1.272050    0.005334
     22          1           0       -4.632928   -1.212036    0.004254
     23          1           0       -2.488742   -2.443778   -0.012033
     24          1           0        0.000728   -2.150738    0.869148
     25          1           0        0.001036   -2.141055   -0.849996
 ---------------------------------------------------------------------

 SCF Done:  E(RM062X) =  -539.759928420     A.U. after   15 cycles

 Excitation energies and oscillator strengths:

 Excited State   1:      Singlet-A      2.8336 eV  437.55 nm  f=0.0293  <S**2>=0.000
      47 -> 48         0.70425
 This state for optimization and/or second-order correction.
 Total Energy, E(TD-HF/TD-DFT) =  -539.655794341
 Copying the excited state density for this state as the 1-particle RhoCI density.

 The electronic state is 1-A.
 Alpha  occ. eigenvalues --  -10.77672 -10.73239 -10.73197 -10.72376 -10.72373
 Alpha  occ. eigenvalues --  -10.71302 -10.71280 -10.70977 -10.70962 -10.70955
 Alpha  occ. eigenvalues --  -10.69898 -10.69882 -10.69667 -10.69647  -1.16494
 Alpha  occ. eigenvalues --   -1.12623  -1.07030  -1.05679  -1.01472  -1.00158
 Alpha  occ. eigenvalues --   -0.95841  -0.91040  -0.86428  -0.85930  -0.83822
 Alpha  occ. eigenvalues --   -0.78414  -0.76036  -0.74449  -0.69558  -0.69226
 Alpha  occ. eigenvalues --   -0.68494  -0.68138  -0.68014  -0.64857  -0.64386
 Alpha  occ. eigenvalues --   -0.62965  -0.61762  -0.60052  -0.59794  -0.59049
 Alpha  occ. eigenvalues --   -0.56881  -0.55176  -0.54780  -0.52500  -0.46741
 Alpha  occ. eigenvalues --   -0.46044  -0.44567
 Alpha virt. eigenvalues --   -0.26105  -0.14593  -0.14079  -0.12683  -0.11181
 Alpha virt. eigenvalues --   -0.10091  -0.09242  -0.08015  -0.07956  -0.07481
 Alpha virt. eigenvalues --   -0.07208  -0.07130  -0.05641  -0.05581  -0.05318

 Mulliken charges:
               1
     1  C    0.094162
     2  C   -0.414183
     3  C   -0.441703
     4  C    0.026808
     5  C    0.026771
     6  C   -0.441458
     7  C   -0.412397
     8  C    0.095434
     9  C   -0.335825
    10  C    0.099510
    11  C   -0.616494
    12  C    0.655972
    13  C   -0.611102
    14  C    0.654981
    15  H    0.236949
    16  H    0.255916
    17  H    0.251291
    18  H    0.221233
    19  H    0.190857
    20  H    0.221287
    21  H    0.251482
    22  H    0.256076
    23  H    0.236809
    24  H    0.250822
    25  H    0.246805
 Sum of Mulliken charges =   1.00000

 Dipole moment (field-independent basis, Debye):
    X=             -0.0039    Y=              0.1842    Z=              0.0000  Tot=              0.1843
 Quadrupole moment (field-independent basis, Debye-Ang):
   XX=            -31.2464   YY=            -56.2631   ZZ=            -84.0935
   XY=             -0.0021   XZ=              0.0037   YZ=              0.0726

 Normal termination of Gaussian 16 at Thu Jul 28 16:10:45 2022.
