 Gaussian 16, Revision C.01,
 Gaussian 16:  ES64L-G16RevC.01  3-Jul-2019

 ---------------------------------------------------------------
 #n M062X/6-311++G(d,p) TD(NStates=1) EmpiricalDispersion=GD3 SP
 ---------------------------------------------------------------

 -------
 SP_-100
 -------
 Symbolic Z-matrix:
 Charge =  1 Multiplicity = 1

                         Standard orientation:
 ---------------------------------------------------------------------
 Center     Atomic      Atomic             Coordinates (Angstroms)
 Number     Number       Type             X           Y           Z
 ---------------------------------------------------------------------
      1          6           0       -2.491725   -1.360677    0.002053
      2          6           0       -3.713917   -0.672421    0.017775
      3          6           0       -3.705825    0.713552    0.018466
      4          6           0       -2.479162    1.407747   -0.006146
      5          6           0        2.479000    1.407856   -0.006388
      6          6           0        3.705297    0.713711    0.018328
      7          6           0        3.713774   -0.672264    0.017811
      8          6           0        2.491486   -1.360581    0.002708
      9          6           0        0.001132   -1.453423   -0.007699
     10          6           0       -0.000083    1.429687   -0.021332
     11          6           0       -1.248641   -0.676903   -0.017420
     12          6           0       -1.239512    0.730968   -0.006715
     13          6           0        1.248694   -0.676849   -0.017492
     14          6           0        1.239630    0.731026   -0.007062
     15          1           0       -2.487394   -2.443507   -0.031325
     16          1           0       -4.646975   -1.212082    0.009820
     17          1           0       -4.608814    1.272185    0.014071
     18          1           0       -2.483128    2.489914    0.025146
     19          1           0       -0.000080    2.510585   -0.001361
     20          1           0        2.482947    2.490026    0.024703
     21          1           0        4.608135    1.272387    0.013677
     22          1           0        4.646656   -1.211886    0.009846
     23          1           0        2.487173   -2.443414   -0.030519
     24          1           0        0.000248   -2.133424   -0.837178
     25          1           0        0.000350   -2.159346    0.881796
 ---------------------------------------------------------------------

 SCF Done:  E(RM062X) =  -539.756144084     A.U. after   15 cycles

 Excitation energies and oscillator strengths:

 Excited State   1:      Singlet-A      2.7895 eV  444.47 nm  f=0.0273  <S**2>=0.000
      47 -> 48         0.70427
 This state for optimization and/or second-order correction.
 Total Energy, E(TD-HF/TD-DFT) =  -539.653633536
 Copying the excited state density for this state as the 1-particle RhoCI density.

 The electronic state is 1-A.
 Alpha  occ. eigenvalues --  -10.77655 -10.73308 -10.73294 -10.72587 -10.72586
 Alpha  occ. eigenvalues --  -10.71557 -10.71550 -10.71117 -10.71115 -10.70981
 Alpha  occ. eigenvalues --  -10.70175 -10.70170 -10.69579 -10.69573  -1.16333
 Alpha  occ. eigenvalues --   -1.12093  -1.06762  -1.05840  -1.00996  -1.00184
 Alpha  occ. eigenvalues --   -0.95648  -0.91086  -0.86405  -0.85841  -0.83798
 Alpha  occ. eigenvalues --   -0.78390  -0.75991  -0.74343  -0.69598  -0.69379
 Alpha  occ. eigenvalues --   -0.68704  -0.68269  -0.68104  -0.64471  -0.64052
 Alpha  occ. eigenvalues --   -0.63219  -0.62097  -0.59848  -0.59401  -0.59179
 Alpha  occ. eigenvalues --   -0.56951  -0.55295  -0.54934  -0.52295  -0.46421
 Alpha  occ. eigenvalues --   -0.46008  -0.44329
 Alpha virt. eigenvalues --   -0.26063  -0.14891  -0.14151  -0.13005  -0.11177
 Alpha virt. eigenvalues --   -0.10078  -0.09203  -0.08029  -0.07900  -0.07463
 Alpha virt. eigenvalues --   -0.07238  -0.07137  -0.05648  -0.05583  -0.05370

 Mulliken charges:
               1
     1  C    0.062189
     2  C   -0.390135
     3  C   -0.442662
     4  C    0.069373
     5  C    0.068974
     6  C   -0.442948
     7  C   -0.391092
     8  C    0.061702
     9  C   -0.276502
    10  C    0.089993
    11  C   -0.604923
    12  C    0.596484
    13  C   -0.604908
    14  C    0.597490
    15  H    0.235435
    16  H    0.257156
    17  H    0.242613
    18  H    0.222603
    19  H    0.187014
    20  H    0.222606
    21  H    0.242520
    22  H    0.257143
    23  H    0.235417
    24  H    0.247374
    25  H    0.257087
 Sum of Mulliken charges =   1.00000

 Dipole moment (field-independent basis, Debye):
    X=             -0.0014    Y=              0.1924    Z=              0.0026  Tot=              0.1924
 Quadrupole moment (field-independent basis, Debye-Ang):
   XX=            -30.8128   YY=            -56.2578   ZZ=            -84.2552
   XY=             -0.0008   XZ=             -0.0012   YZ=              0.1686

 Normal termination of Gaussian 16 at Thu Jul 28 13:49:17 2022.
