 Gaussian 16, Revision C.01,
 Gaussian 16:  ES64L-G16RevC.01  3-Jul-2019

 ---------------------------------------------------------------
 #n M062X/6-311++G(d,p) TD(NStates=1) EmpiricalDispersion=GD3 SP
 ---------------------------------------------------------------

 -------
 SP_-125
 -------
 Symbolic Z-matrix:
 Charge =  1 Multiplicity = 1

                         Standard orientation:
 ---------------------------------------------------------------------
 Center     Atomic      Atomic             Coordinates (Angstroms)
 Number     Number       Type             X           Y           Z
 ---------------------------------------------------------------------
      1          6           0       -2.493594   -1.360902   -0.002575
      2          6           0       -3.703926   -0.672700    0.002395
      3          6           0       -3.689344    0.713124    0.003228
      4          6           0       -2.466148    1.407072    0.000158
      5          6           0        2.464713    1.408014   -0.002030
      6          6           0        3.684578    0.714528    0.001983
      7          6           0        3.702616   -0.671293    0.002708
      8          6           0        2.491420   -1.359968    0.003308
      9          6           0        0.010180   -1.453368   -0.000967
     10          6           0       -0.000723    1.429199   -0.003089
     11          6           0       -1.259899   -0.677301   -0.002148
     12          6           0       -1.237233    0.730569    0.000553
     13          6           0        1.260385   -0.676821   -0.002822
     14          6           0        1.238307    0.731047   -0.002571
     15          1           0       -2.488956   -2.444108   -0.007985
     16          1           0       -4.639644   -1.212576    0.001321
     17          1           0       -4.612201    1.271468    0.003737
     18          1           0       -2.470571    2.489584    0.005491
     19          1           0       -0.000703    2.510272   -0.000261
     20          1           0        2.468952    2.490531    0.001499
     21          1           0        4.606097    1.273227    0.000156
     22          1           0        4.636738   -1.210814    0.001534
     23          1           0        2.486965   -2.443179   -0.000747
     24          1           0        0.002205   -2.146403   -0.856358
     25          1           0        0.003124   -2.145194    0.862819
 ---------------------------------------------------------------------

 SCF Done:  E(RM062X) =  -539.759966009     A.U. after   15 cycles

 Excitation energies and oscillator strengths:

 Excited State   1:      Singlet-A      2.8187 eV  439.86 nm  f=0.0285  <S**2>=0.000
      47 -> 48         0.70426
 This state for optimization and/or second-order correction.
 Total Energy, E(TD-HF/TD-DFT) =  -539.656381049
 Copying the excited state density for this state as the 1-particle RhoCI density.

 The electronic state is 1-A.
 Alpha  occ. eigenvalues --  -10.77663 -10.73310 -10.73186 -10.72459 -10.72453
 Alpha  occ. eigenvalues --  -10.71428 -10.71361 -10.71031 -10.71009 -10.70981
 Alpha  occ. eigenvalues --  -10.70024 -10.69976 -10.69651 -10.69590  -1.16427
 Alpha  occ. eigenvalues --   -1.12413  -1.06917  -1.05751  -1.01263  -1.00189
 Alpha  occ. eigenvalues --   -0.95762  -0.91061  -0.86417  -0.85891  -0.83814
 Alpha  occ. eigenvalues --   -0.78396  -0.76025  -0.74407  -0.69565  -0.69257
 Alpha  occ. eigenvalues --   -0.68517  -0.68209  -0.68122  -0.64699  -0.64252
 Alpha  occ. eigenvalues --   -0.63099  -0.61895  -0.59985  -0.59639  -0.59107
 Alpha  occ. eigenvalues --   -0.56903  -0.55237  -0.54843  -0.52417  -0.46589
 Alpha  occ. eigenvalues --   -0.46057  -0.44478
 Alpha virt. eigenvalues --   -0.26083  -0.14697  -0.14105  -0.12805  -0.11178
 Alpha virt. eigenvalues --   -0.10085  -0.09226  -0.07983  -0.07965  -0.07474
 Alpha virt. eigenvalues --   -0.07205  -0.07147  -0.05644  -0.05582  -0.05337

 Mulliken charges:
               1
     1  C    0.093026
     2  C   -0.401268
     3  C   -0.439409
     4  C    0.016983
     5  C    0.015255
     6  C   -0.440656
     7  C   -0.407815
     8  C    0.088883
     9  C   -0.329732
    10  C    0.092253
    11  C   -0.633374
    12  C    0.682696
    13  C   -0.644152
    14  C    0.688570
    15  H    0.237126
    16  H    0.256586
    17  H    0.248364
    18  H    0.222239
    19  H    0.190108
    20  H    0.222157
    21  H    0.247678
    22  H    0.256256
    23  H    0.237317
    24  H    0.249527
    25  H    0.251381
 Sum of Mulliken charges =   1.00000

 Dipole moment (field-independent basis, Debye):
    X=             -0.0119    Y=              0.1884    Z=              0.0007  Tot=              0.1888
 Quadrupole moment (field-independent basis, Debye-Ang):
   XX=            -31.0728   YY=            -56.2622   ZZ=            -84.1580
   XY=             -0.0067   XZ=             -0.0111   YZ=              0.0257

 Normal termination of Gaussian 16 at Thu Jul 28 13:16:18 2022.
