 Gaussian 16, Revision C.01,
 Gaussian 16:  ES64L-G16RevC.01  3-Jul-2019

 ---------------------------------------------------------------
 #n M062X/6-311++G(d,p) TD(NStates=1) EmpiricalDispersion=GD3 SP
 ---------------------------------------------------------------

 -------
 SP_-100
 -------
 Symbolic Z-matrix:
 Charge =  1 Multiplicity = 1

                         Standard orientation:
 ---------------------------------------------------------------------
 Center     Atomic      Atomic             Coordinates (Angstroms)
 Number     Number       Type             X           Y           Z
 ---------------------------------------------------------------------
      1          6           0        2.494172   -1.360987    0.003914
      2          6           0        3.698719   -0.672798    0.005243
      3          6           0        3.680310    0.713041    0.004589
      4          6           0        2.459395    1.407047   -0.002962
      5          6           0       -2.457816    1.408072   -0.000529
      6          6           0       -3.675012    0.714585    0.005976
      7          6           0       -3.697248   -0.671238    0.004904
      8          6           0       -2.491743   -1.359908   -0.002612
      9          6           0       -0.011306   -1.453370   -0.002353
     10          6           0        0.000791    1.429230   -0.006049
     11          6           0        1.265608   -0.677315   -0.005378
     12          6           0        1.236268    0.730567   -0.003678
     13          6           0       -1.266151   -0.676784   -0.004618
     14          6           0       -1.237472    0.731073   -0.000203
     15          1           0        2.489407   -2.444174   -0.004878
     16          1           0        4.635501   -1.212691    0.002896
     17          1           0        4.612876    1.271381    0.002006
     18          1           0        2.464019    2.489542    0.004978
     19          1           0        0.000770    2.510292   -0.000314
     20          1           0       -2.462229    2.490561    0.009416
     21          1           0       -4.606097    1.273306    0.006004
     22          1           0       -4.632257   -1.210737    0.002673
     23          1           0       -2.487190   -2.443090   -0.012910
     24          1           0       -0.002434   -2.152391    0.865891
     25          1           0       -0.003457   -2.139280   -0.853237
 ---------------------------------------------------------------------

 SCF Done:  E(RM062X) =  -539.759986559     A.U. after   15 cycles

 Excitation energies and oscillator strengths:

 Excited State   1:      Singlet-A      2.8302 eV  438.08 nm  f=0.0291  <S**2>=0.000
      47 -> 48         0.70425
 This state for optimization and/or second-order correction.
 Total Energy, E(TD-HF/TD-DFT) =  -539.655979632
 Copying the excited state density for this state as the 1-particle RhoCI density.

 The electronic state is 1-A.
 Alpha  occ. eigenvalues --  -10.77670 -10.73294 -10.73155 -10.72398 -10.72391
 Alpha  occ. eigenvalues --  -10.71354 -10.71280 -10.70986 -10.70977 -10.70962
 Alpha  occ. eigenvalues --  -10.69944 -10.69891 -10.69681 -10.69614  -1.16478
 Alpha  occ. eigenvalues --   -1.12571  -1.07001  -1.05701  -1.01418  -1.00167
 Alpha  occ. eigenvalues --   -0.95822  -0.91046  -0.86427  -0.85918  -0.83821
 Alpha  occ. eigenvalues --   -0.78409  -0.76035  -0.74439  -0.69562  -0.69230
 Alpha  occ. eigenvalues --   -0.68495  -0.68158  -0.68045  -0.64818  -0.64353
 Alpha  occ. eigenvalues --   -0.63007  -0.61790  -0.60038  -0.59754  -0.59064
 Alpha  occ. eigenvalues --   -0.56885  -0.55200  -0.54785  -0.52479  -0.46702
 Alpha  occ. eigenvalues --   -0.46049  -0.44545
 Alpha virt. eigenvalues --   -0.26099  -0.14618  -0.14085  -0.12713  -0.11180
 Alpha virt. eigenvalues --   -0.10090  -0.09238  -0.08004  -0.07960  -0.07479
 Alpha virt. eigenvalues --   -0.07205  -0.07138  -0.05642  -0.05581  -0.05323

 Mulliken charges:
               1
     1  C    0.097043
     2  C   -0.407970
     3  C   -0.440449
     4  C    0.020286
     5  C    0.019692
     6  C   -0.441361
     7  C   -0.414209
     8  C    0.092658
     9  C   -0.336511
    10  C    0.097076
    11  C   -0.614911
    12  C    0.668132
    13  C   -0.631746
    14  C    0.672423
    15  H    0.236885
    16  H    0.256345
    17  H    0.250905
    18  H    0.221613
    19  H    0.190805
    20  H    0.221453
    21  H    0.250236
    22  H    0.255852
    23  H    0.237287
    24  H    0.250233
    25  H    0.248233
 Sum of Mulliken charges =   1.00000

 Dipole moment (field-independent basis, Debye):
    X=              0.0130    Y=              0.1854    Z=             -0.0007  Tot=              0.1858
 Quadrupole moment (field-independent basis, Debye-Ang):
   XX=            -31.2028   YY=            -56.2628   ZZ=            -84.1095
   XY=              0.0072   XZ=             -0.0123   YZ=              0.0463

 Normal termination of Gaussian 16 at Thu Jul 28 13:34:10 2022.
