 Gaussian 16, Revision C.01,
 Gaussian 16:  ES64L-G16RevC.01  3-Jul-2019

 ---------------------------------------------------------------
 #n M062X/6-311++G(d,p) TD(NStates=1) EmpiricalDispersion=GD3 SP
 ---------------------------------------------------------------

 ------
 SP_-25
 ------
 Symbolic Z-matrix:
 Charge =  1 Multiplicity = 1

                         Standard orientation:
 ---------------------------------------------------------------------
 Center     Atomic      Atomic             Coordinates (Angstroms)
 Number     Number       Type             X           Y           Z
 ---------------------------------------------------------------------
      1          6           0       -2.491815   -1.360396    0.002009
      2          6           0       -3.708414   -0.671948    0.010202
      3          6           0       -3.695732    0.713923    0.010382
      4          6           0       -2.472095    1.407731   -0.003814
      5          6           0        2.472417    1.407517   -0.003328
      6          6           0        3.696790    0.713607    0.010658
      7          6           0        3.708702   -0.672261    0.010131
      8          6           0        2.492295   -1.360595    0.000700
      9          6           0       -0.002263   -1.453386   -0.004439
     10          6           0        0.000163    1.429352   -0.012180
     11          6           0       -1.254459   -0.676950   -0.010051
     12          6           0       -1.238789    0.730922   -0.004277
     13          6           0        1.254351   -0.677057   -0.009904
     14          6           0        1.238553    0.730811   -0.003584
     15          1           0       -2.487400   -2.443488   -0.016878
     16          1           0       -4.642182   -1.211589    0.005639
     17          1           0       -4.608133    1.272527    0.007542
     18          1           0       -2.476219    2.490139    0.013817
     19          1           0        0.000158    2.510370   -0.000761
     20          1           0        2.476581    2.489921    0.014704
     21          1           0        4.609491    1.272130    0.008334
     22          1           0        4.642824   -1.211982    0.005589
     23          1           0        2.487842   -2.443684   -0.018488
     24          1           0       -0.000493   -2.137863   -0.846808
     25          1           0       -0.000697   -2.154101    0.872285
 ---------------------------------------------------------------------

 SCF Done:  E(RM062X) =  -539.758697890     A.U. after   15 cycles

 Excitation energies and oscillator strengths:

 Excited State   1:      Singlet-A      2.8051 eV  441.99 nm  f=0.0279  <S**2>=0.000
      47 -> 48         0.70427
 This state for optimization and/or second-order correction.
 Total Energy, E(TD-HF/TD-DFT) =  -539.655611866
 Copying the excited state density for this state as the 1-particle RhoCI density.

 The electronic state is 1-A.
 Alpha  occ. eigenvalues --  -10.77658 -10.73287 -10.73260 -10.72521 -10.72519
 Alpha  occ. eigenvalues --  -10.71481 -10.71466 -10.71070 -10.71065 -10.70981
 Alpha  occ. eigenvalues --  -10.70091 -10.70080 -10.69604 -10.69590  -1.16378
 Alpha  occ. eigenvalues --   -1.12253  -1.06837  -1.05796  -1.01120  -1.00198
 Alpha  occ. eigenvalues --   -0.95705  -0.91075  -0.86409  -0.85866  -0.83806
 Alpha  occ. eigenvalues --   -0.78390  -0.76010  -0.74376  -0.69576  -0.69307
 Alpha  occ. eigenvalues --   -0.68594  -0.68246  -0.68133  -0.64583  -0.64151
 Alpha  occ. eigenvalues --   -0.63168  -0.62001  -0.59921  -0.59522  -0.59144
 Alpha  occ. eigenvalues --   -0.56924  -0.55263  -0.54900  -0.52356  -0.46492
 Alpha  occ. eigenvalues --   -0.46046  -0.44406
 Alpha virt. eigenvalues --   -0.26071  -0.14789  -0.14126  -0.12902  -0.11177
 Alpha virt. eigenvalues --   -0.10081  -0.09214  -0.08005  -0.07932  -0.07469
 Alpha virt. eigenvalues --   -0.07217  -0.07147  -0.05646  -0.05582  -0.05353

 Mulliken charges:
               1
     1  C    0.079076
     2  C   -0.399992
     3  C   -0.441917
     4  C    0.037204
     5  C    0.037761
     6  C   -0.441491
     7  C   -0.398283
     8  C    0.079999
     9  C   -0.302823
    10  C    0.094394
    11  C   -0.631918
    12  C    0.653197
    13  C   -0.630779
    14  C    0.651529
    15  H    0.236511
    16  H    0.256766
    17  H    0.245261
    18  H    0.222563
    19  H    0.188778
    20  H    0.222567
    21  H    0.245430
    22  H    0.256814
    23  H    0.236507
    24  H    0.248767
    25  H    0.254078
 Sum of Mulliken charges =   1.00000

 Dipole moment (field-independent basis, Debye):
    X=              0.0027    Y=              0.1909    Z=              0.0008  Tot=              0.1909
 Quadrupole moment (field-independent basis, Debye-Ang):
   XX=            -30.9422   YY=            -56.2606   ZZ=            -84.2066
   XY=              0.0015   XZ=              0.0025   YZ=              0.0960

 Normal termination of Gaussian 16 at Thu Jul 28 14:51:34 2022.
