 Gaussian 16, Revision C.01,
 Gaussian 16:  ES64L-G16RevC.01  3-Jul-2019

 ---------------------------------------------------------------
 #n M062X/6-311++G(d,p) TD(NStates=1) EmpiricalDispersion=GD3 SP
 ---------------------------------------------------------------

 ------
 SP_150
 ------
 Symbolic Z-matrix:
 Charge =  1 Multiplicity = 1

                         Standard orientation:
 ---------------------------------------------------------------------
 Center     Atomic      Atomic             Coordinates (Angstroms)
 Number     Number       Type             X           Y           Z
 ---------------------------------------------------------------------
      1          6           0        2.491743   -1.359908   -0.002557
      2          6           0        3.697248   -0.671238    0.004924
      3          6           0        3.675012    0.714585    0.005923
      4          6           0        2.457816    1.408072   -0.000619
      5          6           0       -2.459395    1.407047   -0.003051
      6          6           0       -3.680310    0.713041    0.004536
      7          6           0       -3.698719   -0.672798    0.005263
      8          6           0       -2.494172   -1.360987    0.003970
      9          6           0        0.011306   -1.453372   -0.002043
     10          6           0       -0.000791    1.429229   -0.006140
     11          6           0        1.266151   -0.676785   -0.004598
     12          6           0        1.237472    0.731073   -0.000257
     13          6           0       -1.265608   -0.677315   -0.005358
     14          6           0       -1.236268    0.730567   -0.003732
     15          1           0        2.487190   -2.443090   -0.012798
     16          1           0        4.632257   -1.210736    0.002720
     17          1           0        4.606097    1.273306    0.005921
     18          1           0        2.462229    2.490561    0.009269
     19          1           0       -0.000770    2.510292   -0.000461
     20          1           0       -2.464019    2.489542    0.004832
     21          1           0       -4.612876    1.271381    0.001923
     22          1           0       -4.635501   -1.212690    0.002943
     23          1           0       -2.489407   -2.444174   -0.004766
     24          1           0        0.002433   -2.146845    0.866012
     25          1           0        0.003458   -2.144825   -0.853165
 ---------------------------------------------------------------------

 SCF Done:  E(RM062X) =  -539.760065260     A.U. after   15 cycles

 Excitation energies and oscillator strengths:

 Excited State   1:      Singlet-A      2.8302 eV  438.08 nm  f=0.0291  <S**2>=0.000
      47 -> 48         0.70425
 This state for optimization and/or second-order correction.
 Total Energy, E(TD-HF/TD-DFT) =  -539.656057295
 Copying the excited state density for this state as the 1-particle RhoCI density.

 The electronic state is 1-A.
 Alpha  occ. eigenvalues --  -10.77670 -10.73294 -10.73155 -10.72398 -10.72391
 Alpha  occ. eigenvalues --  -10.71354 -10.71280 -10.70986 -10.70979 -10.70962
 Alpha  occ. eigenvalues --  -10.69944 -10.69891 -10.69681 -10.69614  -1.16478
 Alpha  occ. eigenvalues --   -1.12571  -1.07001  -1.05700  -1.01418  -1.00167
 Alpha  occ. eigenvalues --   -0.95821  -0.91045  -0.86426  -0.85918  -0.83821
 Alpha  occ. eigenvalues --   -0.78408  -0.76035  -0.74439  -0.69560  -0.69230
 Alpha  occ. eigenvalues --   -0.68491  -0.68158  -0.68050  -0.64818  -0.64353
 Alpha  occ. eigenvalues --   -0.63007  -0.61790  -0.60039  -0.59754  -0.59064
 Alpha  occ. eigenvalues --   -0.56885  -0.55200  -0.54785  -0.52479  -0.46702
 Alpha  occ. eigenvalues --   -0.46049  -0.44545
 Alpha virt. eigenvalues --   -0.26098  -0.14617  -0.14085  -0.12713  -0.11180
 Alpha virt. eigenvalues --   -0.10090  -0.09238  -0.08002  -0.07962  -0.07479
 Alpha virt. eigenvalues --   -0.07206  -0.07136  -0.05642  -0.05581  -0.05323

 Mulliken charges:
               1
     1  C    0.092718
     2  C   -0.414153
     3  C   -0.441398
     4  C    0.019868
     5  C    0.020464
     6  C   -0.440484
     7  C   -0.407933
     8  C    0.097299
     9  C   -0.336823
    10  C    0.097165
    11  C   -0.631863
    12  C    0.672262
    13  C   -0.615002
    14  C    0.667950
    15  H    0.237282
    16  H    0.255853
    17  H    0.250235
    18  H    0.221456
    19  H    0.190795
    20  H    0.221617
    21  H    0.250905
    22  H    0.256345
    23  H    0.236882
    24  H    0.250868
    25  H    0.247692
 Sum of Mulliken charges =   1.00000

 Dipole moment (field-independent basis, Debye):
    X=             -0.0130    Y=              0.1853    Z=              0.0006  Tot=              0.1858
 Quadrupole moment (field-independent basis, Debye-Ang):
   XX=            -31.2032   YY=            -56.2629   ZZ=            -84.1096
   XY=             -0.0072   XZ=              0.0123   YZ=              0.0498

 Normal termination of Gaussian 16 at Thu Jul 28 17:21:06 2022.
