 Gaussian 16, Revision C.01,
 Gaussian 16:  ES64L-G16RevC.01  3-Jul-2019

 ---------------------------------------------------------------
 #n M062X/6-311++G(d,p) TD(NStates=1) EmpiricalDispersion=GD3 SP
 ---------------------------------------------------------------

 -----
 SP_50
 -----
 Symbolic Z-matrix:
 Charge =  1 Multiplicity = 1

                         Standard orientation:
 ---------------------------------------------------------------------
 Center     Atomic      Atomic             Coordinates (Angstroms)
 Number     Number       Type             X           Y           Z
 ---------------------------------------------------------------------
      1          6           0        2.492983   -1.360413    0.000697
      2          6           0        3.696147   -0.671976    0.007611
      3          6           0        3.674296    0.713870    0.007952
      4          6           0        2.456252    1.407637   -0.002568
      5          6           0       -2.456410    1.407535   -0.002811
      6          6           0       -3.674826    0.713717    0.007814
      7          6           0       -3.696294   -0.672132    0.007644
      8          6           0       -2.493227   -1.360522    0.001349
      9          6           0        0.001130   -1.453379   -0.003290
     10          6           0       -0.000079    1.429280   -0.009147
     11          6           0        1.267820   -0.677004   -0.007443
     12          6           0        1.236631    0.730864   -0.002781
     13          6           0       -1.267765   -0.677057   -0.007519
     14          6           0       -1.236511    0.730815   -0.003128
     15          1           0        2.488298   -2.443558   -0.013650
     16          1           0        4.632278   -1.211646    0.004206
     17          1           0        4.609261    1.272433    0.006143
     18          1           0        2.460823    2.490093    0.010899
     19          1           0       -0.000077    2.510325   -0.000589
     20          1           0       -2.461002    2.489992    0.010455
     21          1           0       -4.609938    1.272242    0.005743
     22          1           0       -4.632603   -1.211841    0.004228
     23          1           0       -2.488519   -2.443668   -0.012847
     24          1           0        0.000243   -2.151293    0.869134
     25          1           0        0.000345   -2.140501   -0.850002
 ---------------------------------------------------------------------

 SCF Done:  E(RM062X) =  -539.759927588     A.U. after   15 cycles

 Excitation energies and oscillator strengths:

 Excited State   1:      Singlet-A      2.8336 eV  437.54 nm  f=0.0293  <S**2>=0.000
      47 -> 48         0.70425
 This state for optimization and/or second-order correction.
 Total Energy, E(TD-HF/TD-DFT) =  -539.655793417
 Copying the excited state density for this state as the 1-particle RhoCI density.

 The electronic state is 1-A.
 Alpha  occ. eigenvalues --  -10.77672 -10.73225 -10.73211 -10.72375 -10.72373
 Alpha  occ. eigenvalues --  -10.71295 -10.71287 -10.70976 -10.70960 -10.70958
 Alpha  occ. eigenvalues --  -10.69893 -10.69888 -10.69660 -10.69654  -1.16494
 Alpha  occ. eigenvalues --   -1.12623  -1.07030  -1.05678  -1.01472  -1.00158
 Alpha  occ. eigenvalues --   -0.95841  -0.91040  -0.86428  -0.85930  -0.83822
 Alpha  occ. eigenvalues --   -0.78414  -0.76036  -0.74449  -0.69559  -0.69226
 Alpha  occ. eigenvalues --   -0.68495  -0.68138  -0.68013  -0.64857  -0.64385
 Alpha  occ. eigenvalues --   -0.62965  -0.61763  -0.60051  -0.59794  -0.59049
 Alpha  occ. eigenvalues --   -0.56881  -0.55175  -0.54781  -0.52500  -0.46741
 Alpha  occ. eigenvalues --   -0.46044  -0.44567
 Alpha virt. eigenvalues --   -0.26105  -0.14593  -0.14079  -0.12683  -0.11181
 Alpha virt. eigenvalues --   -0.10091  -0.09242  -0.08015  -0.07956  -0.07481
 Alpha virt. eigenvalues --   -0.07208  -0.07131  -0.05641  -0.05581  -0.05318

 Mulliken charges:
               1
     1  C    0.094574
     2  C   -0.413613
     3  C   -0.441624
     4  C    0.026794
     5  C    0.026781
     6  C   -0.441542
     7  C   -0.413017
     8  C    0.094996
     9  C   -0.335741
    10  C    0.099519
    11  C   -0.614705
    12  C    0.655653
    13  C   -0.612908
    14  C    0.655323
    15  H    0.236903
    16  H    0.255969
    17  H    0.251355
    18  H    0.221250
    19  H    0.190857
    20  H    0.221268
    21  H    0.251419
    22  H    0.256022
    23  H    0.236857
    24  H    0.250754
    25  H    0.246856
 Sum of Mulliken charges =   1.00000

 Dipole moment (field-independent basis, Debye):
    X=             -0.0013    Y=              0.1843    Z=             -0.0001  Tot=              0.1843
 Quadrupole moment (field-independent basis, Debye-Ang):
   XX=            -31.2463   YY=            -56.2631   ZZ=            -84.0935
   XY=             -0.0007   XZ=              0.0012   YZ=              0.0723

 Normal termination of Gaussian 16 at Thu Jul 28 15:47:59 2022.
