 Gaussian 16, Revision C.01,
 Gaussian 16:  ES64L-G16RevC.01  3-Jul-2019

 ---------------------------------------------------------------
 #n M062X/6-311++G(d,p) TD(NStates=1) EmpiricalDispersion=GD3 SP
 ---------------------------------------------------------------

 -----
 SP_50
 -----
 Symbolic Z-matrix:
 Charge =  1 Multiplicity = 1

                         Standard orientation:
 ---------------------------------------------------------------------
 Center     Atomic      Atomic             Coordinates (Angstroms)
 Number     Number       Type             X           Y           Z
 ---------------------------------------------------------------------
      1          6           0        2.493800   -1.360690    0.002685
      2          6           0        3.691082   -0.672405    0.015282
      3          6           0        3.665791    0.713532    0.015637
      4          6           0        2.449662    1.407632   -0.005603
      5          6           0       -2.449350    1.407831   -0.005116
      6          6           0       -3.664731    0.713836    0.015916
      7          6           0       -3.690784   -0.672093    0.015216
      8          6           0       -2.493310   -1.360463    0.001382
      9          6           0       -0.002260   -1.453408   -0.006643
     10          6           0        0.000155    1.429555   -0.018273
     11          6           0        1.273475   -0.676979   -0.015043
     12          6           0        1.235549    0.730898   -0.006245
     13          6           0       -1.273585   -0.676874   -0.014888
     14          6           0       -1.235793    0.730993   -0.005549
     15          1           0        2.488969   -2.443625   -0.025718
     16          1           0        4.628454   -1.212101    0.008443
     17          1           0        4.610614    1.272114    0.011501
     18          1           0        2.454453    2.489896    0.020941
     19          1           0        0.000151    2.510500   -0.001147
     20          1           0       -2.454097    2.490091    0.021828
     21          1           0       -4.609260    1.272491    0.012305
     22          1           0       -4.627802   -1.211711    0.008402
     23          1           0       -2.488524   -2.443395   -0.027322
     24          1           0       -0.000483   -2.158128    0.878613
     25          1           0       -0.000688   -2.134325   -0.840393
 ---------------------------------------------------------------------

 SCF Done:  E(RM062X) =  -539.758348616     A.U. after   15 cycles

 Excitation energies and oscillator strengths:

 Excited State   1:      Singlet-A      2.8423 eV  436.22 nm  f=0.0298  <S**2>=0.000
      47 -> 48         0.70423
 This state for optimization and/or second-order correction.
 Total Energy, E(TD-HF/TD-DFT) =  -539.653897388
 Copying the excited state density for this state as the 1-particle RhoCI density.

 The electronic state is 1-A.
 Alpha  occ. eigenvalues --  -10.77681 -10.73212 -10.73184 -10.72316 -10.72314
 Alpha  occ. eigenvalues --  -10.71222 -10.71207 -10.70971 -10.70916 -10.70911
 Alpha  occ. eigenvalues --  -10.69816 -10.69805 -10.69694 -10.69680  -1.16548
 Alpha  occ. eigenvalues --   -1.12780  -1.07119  -1.05624  -1.01638  -1.00122
 Alpha  occ. eigenvalues --   -0.95902  -0.91023  -0.86440  -0.85959  -0.83828
 Alpha  occ. eigenvalues --   -0.78434  -0.76040  -0.74480  -0.69564  -0.69226
 Alpha  occ. eigenvalues --   -0.68512  -0.68071  -0.67889  -0.64976  -0.64488
 Alpha  occ. eigenvalues --   -0.62846  -0.61658  -0.60086  -0.59905  -0.59002
 Alpha  occ. eigenvalues --   -0.56868  -0.55133  -0.54713  -0.52562  -0.46865
 Alpha  occ. eigenvalues --   -0.46022  -0.44627
 Alpha virt. eigenvalues --   -0.26124  -0.14528  -0.14062  -0.12599  -0.11183
 Alpha virt. eigenvalues --   -0.10098  -0.09253  -0.08053  -0.07940  -0.07485
 Alpha virt. eigenvalues --   -0.07220  -0.07111  -0.05638  -0.05581  -0.05306

 Mulliken charges:
               1
     1  C    0.090645
     2  C   -0.415987
     3  C   -0.441795
     4  C    0.051495
     5  C    0.052079
     6  C   -0.441892
     7  C   -0.417036
     8  C    0.090086
     9  C   -0.339468
    10  C    0.098723
    11  C   -0.572548
    12  C    0.602682
    13  C   -0.576491
    14  C    0.602693
    15  H    0.236033
    16  H    0.255741
    17  H    0.253742
    18  H    0.220283
    19  H    0.190634
    20  H    0.220238
    21  H    0.253637
    22  H    0.255607
    23  H    0.236170
    24  H    0.251027
    25  H    0.243704
 Sum of Mulliken charges =   1.00000

 Dipole moment (field-independent basis, Debye):
    X=              0.0025    Y=              0.1802    Z=             -0.0011  Tot=              0.1803
 Quadrupole moment (field-independent basis, Debye-Ang):
   XX=            -31.3766   YY=            -56.2623   ZZ=            -84.0453
   XY=              0.0014   XZ=             -0.0024   YZ=              0.1435

 Normal termination of Gaussian 16 at Thu Jul 28 15:43:45 2022.
