 Gaussian 16, Revision C.01,
 Gaussian 16:  ES64L-G16RevC.01  3-Jul-2019

 ---------------------------------------------------------------
 #n M062X/6-311++G(d,p) TD(NStates=1) EmpiricalDispersion=GD3 SP
 ---------------------------------------------------------------

 ------
 SP_125
 ------
 Symbolic Z-matrix:
 Charge =  1 Multiplicity = 1

                         Standard orientation:
 ---------------------------------------------------------------------
 Center     Atomic      Atomic             Coordinates (Angstroms)
 Number     Number       Type             X           Y           Z
 ---------------------------------------------------------------------
      1          6           0        2.491716   -1.359956   -0.002575
      2          6           0        3.699086   -0.671294    0.002396
      3          6           0        3.678377    0.714523    0.003227
      4          6           0        2.460168    1.408008    0.000159
      5          6           0       -2.461593    1.407079   -0.002030
      6          6           0       -3.683145    0.713128    0.001980
      7          6           0       -3.700406   -0.672699    0.002704
      8          6           0       -2.493898   -1.360915    0.003302
      9          6           0        0.010177   -1.453368   -0.000957
     10          6           0       -0.000716    1.429199   -0.003088
     11          6           0        1.264211   -0.676822   -0.002145
     12          6           0        1.237710    0.731039    0.000556
     13          6           0       -1.263724   -0.677300   -0.002825
     14          6           0       -1.236630    0.730577   -0.002571
     15          1           0        2.487189   -2.443163   -0.007985
     16          1           0        4.633859   -1.210815    0.001323
     17          1           0        4.606323    1.273218    0.003740
     18          1           0        2.464530    2.490521    0.005493
     19          1           0       -0.000696    2.510272   -0.000260
     20          1           0       -2.466143    2.489594    0.001500
     21          1           0       -4.612425    1.271476    0.000148
     22          1           0       -4.636773   -1.212575    0.001527
     23          1           0       -2.489183   -2.444124   -0.000753
     24          1           0        0.002194   -2.145195    0.862819
     25          1           0        0.003116   -2.146402   -0.856357
 ---------------------------------------------------------------------

 SCF Done:  E(RM062X) =  -539.760172799     A.U. after   15 cycles

 Excitation energies and oscillator strengths:

 Excited State   1:      Singlet-A      2.8266 eV  438.63 nm  f=0.0289  <S**2>=0.000
      47 -> 48         0.70425
 This state for optimization and/or second-order correction.
 Total Energy, E(TD-HF/TD-DFT) =  -539.656296900
 Copying the excited state density for this state as the 1-particle RhoCI density.

 The electronic state is 1-A.
 Alpha  occ. eigenvalues --  -10.77667 -10.73295 -10.73170 -10.72418 -10.72412
 Alpha  occ. eigenvalues --  -10.71376 -10.71309 -10.71000 -10.70979 -10.70979
 Alpha  occ. eigenvalues --  -10.69969 -10.69921 -10.69669 -10.69608  -1.16460
 Alpha  occ. eigenvalues --   -1.12518  -1.06973  -1.05717  -1.01365  -1.00176
 Alpha  occ. eigenvalues --   -0.95801  -0.91051  -0.86423  -0.85909  -0.83818
 Alpha  occ. eigenvalues --   -0.78404  -0.76032  -0.74428  -0.69561  -0.69236
 Alpha  occ. eigenvalues --   -0.68495  -0.68177  -0.68079  -0.64778  -0.64319
 Alpha  occ. eigenvalues --   -0.63039  -0.61826  -0.60022  -0.59716  -0.59079
 Alpha  occ. eigenvalues --   -0.56891  -0.55211  -0.54807  -0.52458  -0.46663
 Alpha  occ. eigenvalues --   -0.46054  -0.44523
 Alpha virt. eigenvalues --   -0.26093  -0.14643  -0.14092  -0.12743  -0.11179
 Alpha virt. eigenvalues --   -0.10088  -0.09234  -0.07991  -0.07967  -0.07477
 Alpha virt. eigenvalues --   -0.07204  -0.07141  -0.05642  -0.05581  -0.05327

 Mulliken charges:
               1
     1  C    0.092345
     2  C   -0.411766
     3  C   -0.440857
     4  C    0.015416
     5  C    0.016466
     6  C   -0.439925
     7  C   -0.405882
     8  C    0.096596
     9  C   -0.336444
    10  C    0.094823
    11  C   -0.638026
    12  C    0.683058
    13  C   -0.624103
    14  C    0.678391
    15  H    0.237379
    16  H    0.255998
    17  H    0.249421
    18  H    0.221725
    19  H    0.190643
    20  H    0.221850
    21  H    0.250053
    22  H    0.256402
    23  H    0.237076
    24  H    0.250597
    25  H    0.248763
 Sum of Mulliken charges =   1.00000

 Dipole moment (field-independent basis, Debye):
    X=             -0.0118    Y=              0.1864    Z=              0.0006  Tot=              0.1868
 Quadrupole moment (field-independent basis, Debye-Ang):
   XX=            -31.1597   YY=            -56.2628   ZZ=            -84.1257
   XY=             -0.0065   XZ=              0.0110   YZ=              0.0256

 Normal termination of Gaussian 16 at Thu Jul 28 16:59:57 2022.
