 Gaussian 16, Revision C.01,
 Gaussian 16:  ES64L-G16RevC.01  3-Jul-2019

 ---------------------------------------------------------------
 #n M062X/6-311++G(d,p) TD(NStates=1) EmpiricalDispersion=GD3 SP
 ---------------------------------------------------------------

 -------
 SP_-125
 -------
 Symbolic Z-matrix:
 Charge =  1 Multiplicity = 1

                         Standard orientation:
 ---------------------------------------------------------------------
 Center     Atomic      Atomic             Coordinates (Angstroms)
 Number     Number       Type             X           Y           Z
 ---------------------------------------------------------------------
      1          6           0       -2.490886   -1.360875    0.004055
      2          6           0       -3.720825   -0.672784    0.027969
      3          6           0       -3.717697    0.713420    0.028846
      4          6           0       -2.488099    1.408244   -0.009949
      5          6           0        2.488263    1.408133   -0.009707
      6          6           0        3.718225    0.713258    0.028984
      7          6           0        3.720966   -0.672941    0.027931
      8          6           0        2.491124   -1.360965    0.003398
      9          6           0       -0.001133   -1.453501   -0.012144
     10          6           0        0.000084    1.430419   -0.033497
     11          6           0       -1.241044   -0.676572   -0.027467
     12          6           0       -1.240829    0.731311   -0.010985
     13          6           0        1.240991   -0.676626   -0.027396
     14          6           0        1.240713    0.731249   -0.010639
     15          1           0       -2.486724   -2.443143   -0.048206
     16          1           0       -4.652407   -1.212319    0.015451
     17          1           0       -4.607685    1.272296    0.021619
     18          1           0       -2.491796    2.489898    0.038971
     19          1           0        0.000082    2.511053   -0.002106
     20          1           0        2.491979    2.489782    0.039414
     21          1           0        4.608364    1.272091    0.022011
     22          1           0        4.652724   -1.212516    0.015423
     23          1           0        2.486943   -2.443229   -0.049014
     24          1           0       -0.000250   -2.126183   -0.824299
     25          1           0       -0.000352   -2.168345    0.894354
 ---------------------------------------------------------------------

 SCF Done:  E(RM062X) =  -539.750713565     A.U. after   15 cycles

 Excitation energies and oscillator strengths:

 Excited State   1:      Singlet-A      2.7655 eV  448.32 nm  f=0.0265  <S**2>=0.000
      47 -> 48         0.70427
 This state for optimization and/or second-order correction.
 Total Energy, E(TD-HF/TD-DFT) =  -539.649082731
 Copying the excited state density for this state as the 1-particle RhoCI density.

 The electronic state is 1-A.
 Alpha  occ. eigenvalues --  -10.77653 -10.73348 -10.73334 -10.72679 -10.72677
 Alpha  occ. eigenvalues --  -10.71665 -10.71658 -10.71183 -10.71181 -10.70977
 Alpha  occ. eigenvalues --  -10.70295 -10.70290 -10.69556 -10.69549  -1.16278
 Alpha  occ. eigenvalues --   -1.11878  -1.06673  -1.05891  -1.00871  -1.00121
 Alpha  occ. eigenvalues --   -0.95574  -0.91098  -0.86405  -0.85809  -0.83785
 Alpha  occ. eigenvalues --   -0.78401  -0.75959  -0.74299  -0.69650  -0.69507
 Alpha  occ. eigenvalues --   -0.68867  -0.68283  -0.68023  -0.64330  -0.63924
 Alpha  occ. eigenvalues --   -0.63250  -0.62215  -0.59738  -0.59235  -0.59217
 Alpha  occ. eigenvalues --   -0.56996  -0.55333  -0.54958  -0.52215  -0.46369
 Alpha  occ. eigenvalues --   -0.45909  -0.44220
 Alpha virt. eigenvalues --   -0.26057  -0.15046  -0.14186  -0.13150  -0.11178
 Alpha virt. eigenvalues --   -0.10076  -0.09188  -0.08067  -0.07859  -0.07455
 Alpha virt. eigenvalues --   -0.07270  -0.07124  -0.05652  -0.05586  -0.05396

 Mulliken charges:
               1
     1  C    0.036653
     2  C   -0.375512
     3  C   -0.441659
     4  C    0.102977
     5  C    0.103567
     6  C   -0.441302
     7  C   -0.374516
     8  C    0.037256
     9  C   -0.258657
    10  C    0.069666
    11  C   -0.558206
    12  C    0.532430
    13  C   -0.558719
    14  C    0.531280
    15  H    0.234037
    16  H    0.257481
    17  H    0.238796
    18  H    0.221843
    19  H    0.184500
    20  H    0.221836
    21  H    0.238899
    22  H    0.257478
    23  H    0.234082
    24  H    0.245206
    25  H    0.260583
 Sum of Mulliken charges =   1.00000

 Dipole moment (field-independent basis, Debye):
    X=              0.0014    Y=              0.1930    Z=              0.0058  Tot=              0.1931
 Quadrupole moment (field-independent basis, Debye-Ang):
   XX=            -30.6447   YY=            -56.2525   ZZ=            -84.3192
   XY=              0.0008   XZ=              0.0012   YZ=              0.2635

 Normal termination of Gaussian 16 at Thu Jul 28 13:32:29 2022.
