 Gaussian 16, Revision C.01,
 Gaussian 16:  ES64L-G16RevC.01  3-Jul-2019

 ---------------------------------------------------------------
 #n M062X/6-311++G(d,p) TD(NStates=1) EmpiricalDispersion=GD3 SP
 ---------------------------------------------------------------

 -------
 SP_-100
 -------
 Symbolic Z-matrix:
 Charge =  1 Multiplicity = 1

                         Standard orientation:
 ---------------------------------------------------------------------
 Center     Atomic      Atomic             Coordinates (Angstroms)
 Number     Number       Type             X           Y           Z
 ---------------------------------------------------------------------
      1          6           0       -2.490917   -1.360744    0.004043
      2          6           0       -3.718992   -0.672554    0.025447
      3          6           0       -3.714332    0.713585    0.026152
      4          6           0       -2.485742    1.408186   -0.009174
      5          6           0        2.486070    1.407965   -0.008689
      6          6           0        3.715390    0.713263    0.026427
      7          6           0        3.719274   -0.672868    0.025373
      8          6           0        2.491393   -1.360926    0.002730
      9          6           0       -0.002265   -1.453478   -0.011056
     10          6           0        0.000168    1.430205   -0.030450
     11          6           0       -1.242983   -0.676626   -0.025011
     12          6           0       -1.240587    0.731258   -0.010174
     13          6           0        1.242877   -0.676734   -0.024868
     14          6           0        1.240355    0.731137   -0.009482
     15          1           0       -2.486727   -2.443178   -0.043389
     16          1           0       -4.650810   -1.212094    0.014061
     17          1           0       -4.607458    1.272425    0.019443
     18          1           0       -2.489492    2.489993    0.035193
     19          1           0        0.000163    2.510916   -0.001910
     20          1           0        2.489857    2.489762    0.036079
     21          1           0        4.608816    1.272016    0.020228
     22          1           0        4.651446   -1.212488    0.014006
     23          1           0        2.487166   -2.443354   -0.045003
     24          1           0       -0.000499   -2.127541   -0.827522
     25          1           0       -0.000703   -2.166474    0.891207
 ---------------------------------------------------------------------

 SCF Done:  E(RM062X) =  -539.752248791     A.U. after   15 cycles

 Excitation energies and oscillator strengths:

 Excited State   1:      Singlet-A      2.7718 eV  447.31 nm  f=0.0267  <S**2>=0.000
      47 -> 48         0.70427
 This state for optimization and/or second-order correction.
 Total Energy, E(TD-HF/TD-DFT) =  -539.650386888
 Copying the excited state density for this state as the 1-particle RhoCI density.

 The electronic state is 1-A.
 Alpha  occ. eigenvalues --  -10.77653 -10.73345 -10.73317 -10.72656 -10.72654
 Alpha  occ. eigenvalues --  -10.71641 -10.71627 -10.71168 -10.71163 -10.70978
 Alpha  occ. eigenvalues --  -10.70267 -10.70257 -10.69565 -10.69551  -1.16291
 Alpha  occ. eigenvalues --   -1.11932  -1.06694  -1.05880  -1.00897  -1.00142
 Alpha  occ. eigenvalues --   -0.95592  -0.91096  -0.86405  -0.85817  -0.83788
 Alpha  occ. eigenvalues --   -0.78397  -0.75968  -0.74310  -0.69635  -0.69472
 Alpha  occ. eigenvalues --   -0.68827  -0.68281  -0.68044  -0.64364  -0.63956
 Alpha  occ. eigenvalues --   -0.63246  -0.62187  -0.59767  -0.59277  -0.59208
 Alpha  occ. eigenvalues --   -0.56983  -0.55325  -0.54954  -0.52235  -0.46378
 Alpha  occ. eigenvalues --   -0.45938  -0.44248
 Alpha virt. eigenvalues --   -0.26058  -0.15006  -0.14177  -0.13113  -0.11178
 Alpha virt. eigenvalues --   -0.10077  -0.09192  -0.08057  -0.07869  -0.07457
 Alpha virt. eigenvalues --   -0.07262  -0.07127  -0.05651  -0.05585  -0.05389

 Mulliken charges:
               1
     1  C    0.042347
     2  C   -0.380051
     3  C   -0.442334
     4  C    0.095615
     5  C    0.096702
     6  C   -0.441650
     7  C   -0.378060
     8  C    0.043490
     9  C   -0.261537
    10  C    0.075594
    11  C   -0.570109
    12  C    0.547576
    13  C   -0.570949
    14  C    0.545324
    15  H    0.234351
    16  H    0.257416
    17  H    0.239666
    18  H    0.222143
    19  H    0.185114
    20  H    0.222131
    21  H    0.239867
    22  H    0.257418
    23  H    0.234427
    24  H    0.245822
    25  H    0.259689
 Sum of Mulliken charges =   1.00000

 Dipole moment (field-independent basis, Debye):
    X=              0.0028    Y=              0.1931    Z=              0.0048  Tot=              0.1931
 Quadrupole moment (field-independent basis, Debye-Ang):
   XX=            -30.6858   YY=            -56.2539   ZZ=            -84.3033
   XY=              0.0016   XZ=              0.0025   YZ=              0.2396

 Normal termination of Gaussian 16 at Thu Jul 28 13:53:36 2022.
