 Gaussian 16, Revision C.01,
 Gaussian 16:  ES64L-G16RevC.01  3-Jul-2019

 ---------------------------------------------------------------
 #n M062X/6-311++G(d,p) TD(NStates=1) EmpiricalDispersion=GD3 SP
 ---------------------------------------------------------------

 ------
 SP_-25
 ------
 Symbolic Z-matrix:
 Charge =  1 Multiplicity = 1

                         Standard orientation:
 ---------------------------------------------------------------------
 Center     Atomic      Atomic             Coordinates (Angstroms)
 Number     Number       Type             X           Y           Z
 ---------------------------------------------------------------------
      1          6           0       -2.491545   -1.360385    0.002674
      2          6           0       -3.710105   -0.671935    0.012761
      3          6           0       -3.698567    0.713966    0.012944
      4          6           0       -2.474289    1.407834   -0.004826
      5          6           0        2.474773    1.407511   -0.004097
      6          6           0        3.700155    0.713491    0.013358
      7          6           0        3.710536   -0.672405    0.012653
      8          6           0        2.492265   -1.360680    0.000709
      9          6           0       -0.003395   -1.453396   -0.005557
     10          6           0        0.000245    1.429443   -0.015222
     11          6           0       -1.252573   -0.676888   -0.012582
     12          6           0       -1.239148    0.730987   -0.005431
     13          6           0        1.252412   -0.677049   -0.012362
     14          6           0        1.238794    0.730818   -0.004391
     15          1           0       -2.487178   -2.443407   -0.020899
     16          1           0       -4.643459   -1.211545    0.007054
     17          1           0       -4.607681    1.272616    0.009332
     18          1           0       -2.478341    2.490178    0.017165
     19          1           0        0.000239    2.510429   -0.000947
     20          1           0        2.478884    2.489849    0.018495
     21          1           0        4.609718    1.272018    0.010518
     22          1           0        4.644422   -1.212134    0.006978
     23          1           0        2.487839   -2.443696   -0.023315
     24          1           0       -0.000741   -2.135805   -0.843604
     25          1           0       -0.001047   -2.156380    0.875443
 ---------------------------------------------------------------------

 SCF Done:  E(RM062X) =  -539.757952861     A.U. after   15 cycles

 Excitation energies and oscillator strengths:

 Excited State   1:      Singlet-A      2.8001 eV  442.78 nm  f=0.0277  <S**2>=0.000
      47 -> 48         0.70427
 This state for optimization and/or second-order correction.
 Total Energy, E(TD-HF/TD-DFT) =  -539.655050946
 Copying the excited state density for this state as the 1-particle RhoCI density.

 The electronic state is 1-A.
 Alpha  occ. eigenvalues --  -10.77657 -10.73303 -10.73262 -10.72543 -10.72541
 Alpha  occ. eigenvalues --  -10.71511 -10.71489 -10.71087 -10.71080 -10.70981
 Alpha  occ. eigenvalues --  -10.70122 -10.70106 -10.69600 -10.69579  -1.16363
 Alpha  occ. eigenvalues --   -1.12200  -1.06811  -1.05812  -1.01077  -1.00195
 Alpha  occ. eigenvalues --   -0.95686  -0.91079  -0.86408  -0.85857  -0.83804
 Alpha  occ. eigenvalues --   -0.78390  -0.76004  -0.74365  -0.69583  -0.69329
 Alpha  occ. eigenvalues --   -0.68629  -0.68255  -0.68126  -0.64545  -0.64118
 Alpha  occ. eigenvalues --   -0.63188  -0.62033  -0.59897  -0.59482  -0.59156
 Alpha  occ. eigenvalues --   -0.56933  -0.55275  -0.54912  -0.52336  -0.46465
 Alpha  occ. eigenvalues --   -0.46037  -0.44381
 Alpha virt. eigenvalues --   -0.26068  -0.14822  -0.14134  -0.12936  -0.11177
 Alpha virt. eigenvalues --   -0.10080  -0.09211  -0.08013  -0.07920  -0.07467
 Alpha virt. eigenvalues --   -0.07223  -0.07144  -0.05647  -0.05582  -0.05359

 Mulliken charges:
               1
     1  C    0.073388
     2  C   -0.398117
     3  C   -0.442635
     4  C    0.047327
     5  C    0.048270
     6  C   -0.441920
     7  C   -0.395433
     8  C    0.074785
     9  C   -0.292858
    10  C    0.094176
    11  C   -0.624565
    12  C    0.635936
    13  C   -0.623484
    14  C    0.633251
    15  H    0.236151
    16  H    0.256886
    17  H    0.244297
    18  H    0.222619
    19  H    0.188229
    20  H    0.222620
    21  H    0.244559
    22  H    0.256946
    23  H    0.236165
    24  H    0.248377
    25  H    0.255030
 Sum of Mulliken charges =   1.00000

 Dipole moment (field-independent basis, Debye):
    X=              0.0041    Y=              0.1915    Z=              0.0012  Tot=              0.1916
 Quadrupole moment (field-independent basis, Debye-Ang):
   XX=            -30.8988   YY=            -56.2597   ZZ=            -84.2228
   XY=              0.0023   XZ=              0.0037   YZ=              0.1198

 Normal termination of Gaussian 16 at Thu Jul 28 14:53:17 2022.
