 Gaussian 16, Revision C.01,
 Gaussian 16:  ES64L-G16RevC.01  3-Jul-2019

 ---------------------------------------------------------------
 #n M062X/6-311++G(d,p) TD(NStates=1) EmpiricalDispersion=GD3 SP
 ---------------------------------------------------------------

 -------
 SP_-125
 -------
 Symbolic Z-matrix:
 Charge =  1 Multiplicity = 1

                         Standard orientation:
 ---------------------------------------------------------------------
 Center     Atomic      Atomic             Coordinates (Angstroms)
 Number     Number       Type             X           Y           Z
 ---------------------------------------------------------------------
      1          6           0       -2.492505   -1.360778    0.000076
      2          6           0       -3.710680   -0.672561    0.012625
      3          6           0       -3.700684    0.713333    0.013474
      4          6           0       -2.474934    1.407404   -0.003890
      5          6           0        2.474127    1.407941   -0.005104
      6          6           0        3.698038    0.714124    0.012785
      7          6           0        3.709962   -0.671778    0.012805
      8          6           0        2.491306   -1.360286    0.003351
      9          6           0        0.005658   -1.453396   -0.005434
     10          6           0       -0.000409    1.429443   -0.015259
     11          6           0       -1.252359   -0.677103   -0.012281
     12          6           0       -1.238676    0.730762   -0.004066
     13          6           0        1.252626   -0.676834   -0.012647
     14          6           0        1.239266    0.731043   -0.005800
     15          1           0       -2.488060   -2.443793   -0.024076
     16          1           0       -4.644743   -1.212330    0.006972
     17          1           0       -4.610396    1.271818    0.010881
     18          1           0       -2.479065    2.489740    0.018879
     19          1           0       -0.000398    2.510429   -0.001006
     20          1           0        2.478160    2.490289    0.016663
     21          1           0        4.607002    1.272816    0.008903
     22          1           0        4.643139   -1.211349    0.007099
     23          1           0        2.486958   -2.443311   -0.020048
     24          1           0        0.001235   -2.138022   -0.843590
     25          1           0        0.001745   -2.154161    0.875506
 ---------------------------------------------------------------------

 SCF Done:  E(RM062X) =  -539.758008883     A.U. after   15 cycles

 Excitation energies and oscillator strengths:

 Excited State   1:      Singlet-A      2.8001 eV  442.78 nm  f=0.0277  <S**2>=0.000
      47 -> 48         0.70427
 This state for optimization and/or second-order correction.
 Total Energy, E(TD-HF/TD-DFT) =  -539.655106432
 Copying the excited state density for this state as the 1-particle RhoCI density.

 The electronic state is 1-A.
 Alpha  occ. eigenvalues --  -10.77657 -10.73317 -10.73248 -10.72544 -10.72540
 Alpha  occ. eigenvalues --  -10.71518 -10.71482 -10.71090 -10.71077 -10.70982
 Alpha  occ. eigenvalues --  -10.70127 -10.70101 -10.69607 -10.69573  -1.16363
 Alpha  occ. eigenvalues --   -1.12200  -1.06811  -1.05812  -1.01077  -1.00195
 Alpha  occ. eigenvalues --   -0.95685  -0.91078  -0.86408  -0.85857  -0.83804
 Alpha  occ. eigenvalues --   -0.78389  -0.76004  -0.74365  -0.69582  -0.69328
 Alpha  occ. eigenvalues --   -0.68625  -0.68255  -0.68131  -0.64545  -0.64118
 Alpha  occ. eigenvalues --   -0.63189  -0.62032  -0.59898  -0.59482  -0.59156
 Alpha  occ. eigenvalues --   -0.56933  -0.55277  -0.54909  -0.52336  -0.46465
 Alpha  occ. eigenvalues --   -0.46037  -0.44381
 Alpha virt. eigenvalues --   -0.26068  -0.14821  -0.14134  -0.12936  -0.11177
 Alpha virt. eigenvalues --   -0.10080  -0.09211  -0.08012  -0.07921  -0.07467
 Alpha virt. eigenvalues --   -0.07225  -0.07143  -0.05647  -0.05582  -0.05359

 Mulliken charges:
               1
     1  C    0.075385
     2  C   -0.394465
     3  C   -0.441689
     4  C    0.048634
     5  C    0.047068
     6  C   -0.442881
     7  C   -0.398939
     8  C    0.073097
     9  C   -0.293247
    10  C    0.094193
    11  C   -0.623212
    12  C    0.632320
    13  C   -0.625013
    14  C    0.636780
    15  H    0.236166
    16  H    0.256968
    17  H    0.244646
    18  H    0.222622
    19  H    0.188223
    20  H    0.222620
    21  H    0.244209
    22  H    0.256866
    23  H    0.236142
    24  H    0.248197
    25  H    0.255308
 Sum of Mulliken charges =   1.00000

 Dipole moment (field-independent basis, Debye):
    X=             -0.0068    Y=              0.1915    Z=              0.0017  Tot=              0.1916
 Quadrupole moment (field-independent basis, Debye-Ang):
   XX=            -30.8992   YY=            -56.2598   ZZ=            -84.2229
   XY=             -0.0038   XZ=             -0.0062   YZ=              0.1213

 Normal termination of Gaussian 16 at Thu Jul 28 13:23:01 2022.
