 Gaussian 16, Revision C.01,
 Gaussian 16:  ES64L-G16RevC.01  3-Jul-2019

 ---------------------------------------------------------------
 #n M062X/6-311++G(d,p) TD(NStates=1) EmpiricalDispersion=GD3 SP
 ---------------------------------------------------------------

 -------
 SP_-150
 -------
 Symbolic Z-matrix:
 Charge =  1 Multiplicity = 1

                         Standard orientation:
 ---------------------------------------------------------------------
 Center     Atomic      Atomic             Coordinates (Angstroms)
 Number     Number       Type             X           Y           Z
 ---------------------------------------------------------------------
      1          6           0       -2.492203   -1.360868    0.000753
      2          6           0       -3.714202   -0.672735    0.017706
      3          6           0       -3.706883    0.713233    0.018731
      4          6           0       -2.479487    1.407529   -0.005678
      5          6           0        2.478675    1.408073   -0.006892
      6          6           0        3.704239    0.714029    0.018043
      7          6           0        3.713489   -0.671950    0.017888
      8          6           0        2.491008   -1.360390    0.004031
      9          6           0        0.005660   -1.453423   -0.007639
     10          6           0       -0.000413    1.429687   -0.021350
     11          6           0       -1.248534   -0.677012   -0.017271
     12          6           0       -1.239277    0.730852   -0.006034
     13          6           0        1.248801   -0.676741   -0.017633
     14          6           0        1.239864    0.731141   -0.007765
     15          1           0       -2.487834   -2.443693   -0.032914
     16          1           0       -4.647615   -1.212475    0.009777
     17          1           0       -4.610172    1.271783    0.014843
     18          1           0       -2.483491    2.489690    0.026003
     19          1           0       -0.000402    2.510585   -0.001390
     20          1           0        2.482583    2.490251    0.023787
     21          1           0        4.606777    1.272790    0.012872
     22          1           0        4.646016   -1.211493    0.009908
     23          1           0        2.486734   -2.443228   -0.028884
     24          1           0        0.001240   -2.134533   -0.837176
     25          1           0        0.001750   -2.158236    0.881832
 ---------------------------------------------------------------------

 SCF Done:  E(RM062X) =  -539.756164770     A.U. after   15 cycles

 Excitation energies and oscillator strengths:

 Excited State   1:      Singlet-A      2.7895 eV  444.47 nm  f=0.0273  <S**2>=0.000
      47 -> 48         0.70427
 This state for optimization and/or second-order correction.
 Total Energy, E(TD-HF/TD-DFT) =  -539.653654225
 Copying the excited state density for this state as the 1-particle RhoCI density.

 The electronic state is 1-A.
 Alpha  occ. eigenvalues --  -10.77655 -10.73335 -10.73267 -10.72588 -10.72585
 Alpha  occ. eigenvalues --  -10.71572 -10.71535 -10.71122 -10.71110 -10.70982
 Alpha  occ. eigenvalues --  -10.70186 -10.70159 -10.69593 -10.69559  -1.16333
 Alpha  occ. eigenvalues --   -1.12093  -1.06762  -1.05841  -1.00996  -1.00183
 Alpha  occ. eigenvalues --   -0.95647  -0.91085  -0.86406  -0.85840  -0.83798
 Alpha  occ. eigenvalues --   -0.78390  -0.75991  -0.74343  -0.69598  -0.69378
 Alpha  occ. eigenvalues --   -0.68701  -0.68269  -0.68107  -0.64471  -0.64053
 Alpha  occ. eigenvalues --   -0.63220  -0.62095  -0.59849  -0.59400  -0.59179
 Alpha  occ. eigenvalues --   -0.56951  -0.55298  -0.54929  -0.52295  -0.46420
 Alpha  occ. eigenvalues --   -0.46008  -0.44329
 Alpha virt. eigenvalues --   -0.26062  -0.14891  -0.14151  -0.13005  -0.11177
 Alpha virt. eigenvalues --   -0.10078  -0.09203  -0.08029  -0.07900  -0.07463
 Alpha virt. eigenvalues --   -0.07239  -0.07136  -0.05648  -0.05583  -0.05370

 Mulliken charges:
               1
     1  C    0.063259
     2  C   -0.388161
     3  C   -0.442083
     4  C    0.070129
     5  C    0.068138
     6  C   -0.443511
     7  C   -0.392944
     8  C    0.060841
     9  C   -0.276781
    10  C    0.089989
    11  C   -0.604999
    12  C    0.594497
    13  C   -0.604925
    14  C    0.599519
    15  H    0.235467
    16  H    0.257182
    17  H    0.242797
    18  H    0.222596
    19  H    0.187012
    20  H    0.222611
    21  H    0.242334
    22  H    0.257119
    23  H    0.235377
    24  H    0.247297
    25  H    0.257237
 Sum of Mulliken charges =   1.00000

 Dipole moment (field-independent basis, Debye):
    X=             -0.0069    Y=              0.1924    Z=              0.0028  Tot=              0.1925
 Quadrupole moment (field-independent basis, Debye-Ang):
   XX=            -30.8132   YY=            -56.2579   ZZ=            -84.2552
   XY=             -0.0039   XZ=             -0.0062   YZ=              0.1693

 Normal termination of Gaussian 16 at Thu Jul 28 13:03:41 2022.
