 Gaussian 16, Revision C.01,
 Gaussian 16:  ES64L-G16RevC.01  3-Jul-2019

 ---------------------------------------------------------------
 #n M062X/6-311++G(d,p) TD(NStates=1) EmpiricalDispersion=GD3 SP
 ---------------------------------------------------------------

 -----
 SP_75
 -----
 Symbolic Z-matrix:
 Charge =  1 Multiplicity = 1

                         Standard orientation:
 ---------------------------------------------------------------------
 Center     Atomic      Atomic             Coordinates (Angstroms)
 Number     Number       Type             X           Y           Z
 ---------------------------------------------------------------------
      1          6           0        2.493283   -1.360476    0.001377
      2          6           0        3.692621   -0.672092    0.012694
      3          6           0        3.668096    0.713805    0.013210
      4          6           0        2.451703    1.407723   -0.004357
      5          6           0       -2.451859    1.407622   -0.004601
      6          6           0       -3.668626    0.713652    0.013071
      7          6           0       -3.692770   -0.672247    0.012727
      8          6           0       -2.493527   -1.360588    0.002028
      9          6           0        0.001130   -1.453396   -0.005494
     10          6           0       -0.000078    1.429443   -0.015240
     11          6           0        1.271645   -0.676942   -0.012430
     12          6           0        1.236032    0.730926   -0.004748
     13          6           0       -1.271590   -0.676995   -0.012507
     14          6           0       -1.235910    0.730878   -0.005096
     15          1           0        2.488522   -2.443495   -0.022486
     16          1           0        4.629403   -1.211742    0.007015
     17          1           0        4.609486    1.272412    0.010109
     18          1           0        2.456398    2.490063    0.018022
     19          1           0       -0.000076    2.510429   -0.000976
     20          1           0       -2.456577    2.489965    0.017579
     21          1           0       -4.610163    1.272222    0.009707
     22          1           0       -4.629728   -1.211937    0.007036
     23          1           0       -2.488745   -2.443609   -0.021684
     24          1           0        0.000242   -2.155271    0.875475
     25          1           0        0.000344   -2.136914   -0.843597
 ---------------------------------------------------------------------

 SCF Done:  E(RM062X) =  -539.759038298     A.U. after   15 cycles

 Excitation energies and oscillator strengths:

 Excited State   1:      Singlet-A      2.8396 eV  436.62 nm  f=0.0296  <S**2>=0.000
      47 -> 48         0.70424
 This state for optimization and/or second-order correction.
 Total Energy, E(TD-HF/TD-DFT) =  -539.654683499
 Copying the excited state density for this state as the 1-particle RhoCI density.

 The electronic state is 1-A.
 Alpha  occ. eigenvalues --  -10.77678 -10.73212 -10.73198 -10.72336 -10.72334
 Alpha  occ. eigenvalues --  -10.71243 -10.71236 -10.70974 -10.70930 -10.70927
 Alpha  occ. eigenvalues --  -10.69839 -10.69834 -10.69680 -10.69673  -1.16530
 Alpha  occ. eigenvalues --   -1.12728  -1.07089  -1.05642  -1.01582  -1.00135
 Alpha  occ. eigenvalues --   -0.95881  -0.91029  -0.86435  -0.85950  -0.83826
 Alpha  occ. eigenvalues --   -0.78427  -0.76039  -0.74470  -0.69561  -0.69224
 Alpha  occ. eigenvalues --   -0.68504  -0.68095  -0.67934  -0.64937  -0.64453
 Alpha  occ. eigenvalues --   -0.62887  -0.61693  -0.60076  -0.59869  -0.59018
 Alpha  occ. eigenvalues --   -0.56872  -0.55147  -0.54737  -0.52541  -0.46823
 Alpha  occ. eigenvalues --   -0.46030  -0.44608
 Alpha virt. eigenvalues --   -0.26117  -0.14548  -0.14067  -0.12626  -0.11182
 Alpha virt. eigenvalues --   -0.10095  -0.09249  -0.08040  -0.07945  -0.07484
 Alpha virt. eigenvalues --   -0.07216  -0.07117  -0.05639  -0.05581  -0.05310

 Mulliken charges:
               1
     1  C    0.092061
     2  C   -0.416221
     3  C   -0.442111
     4  C    0.043302
     5  C    0.043110
     6  C   -0.442050
     7  C   -0.415676
     8  C    0.092398
     9  C   -0.336818
    10  C    0.100413
    11  C   -0.589608
    12  C    0.620502
    13  C   -0.587669
    14  C    0.620391
    15  H    0.236392
    16  H    0.255758
    17  H    0.252917
    18  H    0.220616
    19  H    0.190776
    20  H    0.220637
    21  H    0.252974
    22  H    0.255820
    23  H    0.236331
    24  H    0.251040
    25  H    0.244714
 Sum of Mulliken charges =   1.00000

 Dipole moment (field-independent basis, Debye):
    X=             -0.0013    Y=              0.1816    Z=             -0.0005  Tot=              0.1816
 Quadrupole moment (field-independent basis, Debye-Ang):
   XX=            -31.3332   YY=            -56.2628   ZZ=            -84.0614
   XY=             -0.0007   XZ=              0.0012   YZ=              0.1202

 Normal termination of Gaussian 16 at Thu Jul 28 16:07:24 2022.
