 Gaussian 16, Revision C.01,
 Gaussian 16:  ES64L-G16RevC.01  3-Jul-2019

 ---------------------------------------------------------------
 #n M062X/6-311++G(d,p) TD(NStates=1) EmpiricalDispersion=GD3 SP
 ---------------------------------------------------------------

 -------
 SP_-100
 -------
 Symbolic Z-matrix:
 Charge =  1 Multiplicity = 1

                         Standard orientation:
 ---------------------------------------------------------------------
 Center     Atomic      Atomic             Coordinates (Angstroms)
 Number     Number       Type             X           Y           Z
 ---------------------------------------------------------------------
      1          6           0        2.493898   -1.360915    0.003252
      2          6           0        3.700406   -0.672699    0.002687
      3          6           0        3.683145    0.713128    0.002028
      4          6           0        2.461593    1.407079   -0.001949
      5          6           0       -2.460168    1.408008    0.000240
      6          6           0       -3.678377    0.714523    0.003275
      7          6           0       -3.699086   -0.671294    0.002379
      8          6           0       -2.491716   -1.359956   -0.002624
      9          6           0       -0.010177   -1.453368   -0.001237
     10          6           0        0.000716    1.429199   -0.003007
     11          6           0        1.263724   -0.677300   -0.002843
     12          6           0        1.236630    0.730577   -0.002522
     13          6           0       -1.264211   -0.676822   -0.002163
     14          6           0       -1.237710    0.731039    0.000604
     15          1           0        2.489183   -2.444124   -0.000854
     16          1           0        4.636774   -1.212575    0.001484
     17          1           0        4.612425    1.271476    0.000222
     18          1           0        2.466143    2.489594    0.001631
     19          1           0        0.000696    2.510272   -0.000127
     20          1           0       -2.464530    2.490520    0.005625
     21          1           0       -4.606323    1.273218    0.003815
     22          1           0       -4.633859   -1.210815    0.001280
     23          1           0       -2.487189   -2.443163   -0.008086
     24          1           0       -0.002195   -2.150186    0.862722
     25          1           0       -0.003115   -2.141412   -0.856433
 ---------------------------------------------------------------------

 SCF Done:  E(RM062X) =  -539.760137392     A.U. after   15 cycles

 Excitation energies and oscillator strengths:

 Excited State   1:      Singlet-A      2.8266 eV  438.63 nm  f=0.0289  <S**2>=0.000
      47 -> 48         0.70425
 This state for optimization and/or second-order correction.
 Total Energy, E(TD-HF/TD-DFT) =  -539.656261959
 Copying the excited state density for this state as the 1-particle RhoCI density.

 The electronic state is 1-A.
 Alpha  occ. eigenvalues --  -10.77667 -10.73295 -10.73170 -10.72418 -10.72412
 Alpha  occ. eigenvalues --  -10.71376 -10.71309 -10.71000 -10.70979 -10.70978
 Alpha  occ. eigenvalues --  -10.69969 -10.69921 -10.69669 -10.69608  -1.16460
 Alpha  occ. eigenvalues --   -1.12518  -1.06973  -1.05717  -1.01365  -1.00176
 Alpha  occ. eigenvalues --   -0.95802  -0.91051  -0.86423  -0.85909  -0.83819
 Alpha  occ. eigenvalues --   -0.78404  -0.76032  -0.74429  -0.69562  -0.69236
 Alpha  occ. eigenvalues --   -0.68497  -0.68177  -0.68077  -0.64778  -0.64319
 Alpha  occ. eigenvalues --   -0.63039  -0.61827  -0.60021  -0.59716  -0.59079
 Alpha  occ. eigenvalues --   -0.56891  -0.55211  -0.54807  -0.52458  -0.46663
 Alpha  occ. eigenvalues --   -0.46054  -0.44523
 Alpha virt. eigenvalues --   -0.26093  -0.14643  -0.14092  -0.12743  -0.11179
 Alpha virt. eigenvalues --   -0.10088  -0.09234  -0.07993  -0.07966  -0.07477
 Alpha virt. eigenvalues --   -0.07203  -0.07142  -0.05642  -0.05581  -0.05327

 Mulliken charges:
               1
     1  C    0.096446
     2  C   -0.405892
     3  C   -0.439906
     4  C    0.016376
     5  C    0.015328
     6  C   -0.440838
     7  C   -0.411793
     8  C    0.092357
     9  C   -0.336316
    10  C    0.094774
    11  C   -0.624070
    12  C    0.678498
    13  C   -0.637977
    14  C    0.683141
    15  H    0.237077
    16  H    0.256402
    17  H    0.250053
    18  H    0.221848
    19  H    0.190647
    20  H    0.221724
    21  H    0.249422
    22  H    0.255997
    23  H    0.237382
    24  H    0.250048
    25  H    0.249270
 Sum of Mulliken charges =   1.00000

 Dipole moment (field-independent basis, Debye):
    X=              0.0118    Y=              0.1865    Z=             -0.0006  Tot=              0.1868
 Quadrupole moment (field-independent basis, Debye-Ang):
   XX=            -31.1595   YY=            -56.2627   ZZ=            -84.1257
   XY=              0.0066   XZ=             -0.0110   YZ=              0.0224

 Normal termination of Gaussian 16 at Thu Jul 28 13:35:51 2022.
