 Gaussian 16, Revision C.01,
 Gaussian 16:  ES64L-G16RevC.01  3-Jul-2019

 ---------------------------------------------------------------
 #n M062X/6-311++G(d,p) TD(NStates=1) EmpiricalDispersion=GD3 SP
 ---------------------------------------------------------------

 ------
 SP_125
 ------
 Symbolic Z-matrix:
 Charge =  1 Multiplicity = 1

                         Standard orientation:
 ---------------------------------------------------------------------
 Center     Atomic      Atomic             Coordinates (Angstroms)
 Number     Number       Type             X           Y           Z
 ---------------------------------------------------------------------
      1          6           0        2.493610   -1.360573    0.002071
      2          6           0        3.687258   -0.672296    0.020302
      3          6           0        3.658531    0.713722    0.021162
      4          6           0        2.444801    1.407980   -0.006921
      5          6           0       -2.445111    1.407784   -0.007408
      6          6           0       -3.659591    0.713419    0.020883
      7          6           0       -3.687558   -0.672606    0.020367
      8          6           0       -2.494101   -1.360806    0.003372
      9          6           0        0.002260   -1.453439   -0.008787
     10          6           0       -0.000154    1.429839   -0.024381
     11          6           0        1.277410   -0.676767   -0.019870
     12          6           0        1.235193    0.731101   -0.007526
     13          6           0       -1.277300   -0.676871   -0.020027
     14          6           0       -1.234949    0.731010   -0.008222
     15          1           0        2.488748   -2.443285   -0.036136
     16          1           0        4.624926   -1.211880    0.011218
     17          1           0        4.609485    1.272453    0.016256
     18          1           0        2.449673    2.490038    0.028924
     19          1           0       -0.000149    2.510682   -0.001559
     20          1           0       -2.450027    2.489848    0.028036
     21          1           0       -4.610839    1.272081    0.015449
     22          1           0       -4.625581   -1.212269    0.011258
     23          1           0       -2.489194   -2.443522   -0.034534
     24          1           0        0.000480   -2.161143    0.884959
     25          1           0        0.000686   -2.131993   -0.833964
 ---------------------------------------------------------------------

 SCF Done:  E(RM062X) =  -539.756689613     A.U. after   15 cycles

 Excitation energies and oscillator strengths:

 Excited State   1:      Singlet-A      2.8468 eV  435.52 nm  f=0.0301  <S**2>=0.000
      47 -> 48         0.70422
 This state for optimization and/or second-order correction.
 Total Energy, E(TD-HF/TD-DFT) =  -539.652070361
 Copying the excited state density for this state as the 1-particle RhoCI density.

 The electronic state is 1-A.
 Alpha  occ. eigenvalues --  -10.77688 -10.73201 -10.73172 -10.72278 -10.72276
 Alpha  occ. eigenvalues --  -10.71171 -10.71156 -10.70968 -10.70886 -10.70882
 Alpha  occ. eigenvalues --  -10.69764 -10.69753 -10.69715 -10.69702  -1.16585
 Alpha  occ. eigenvalues --   -1.12884  -1.07180  -1.05586  -1.01752  -1.00093
 Alpha  occ. eigenvalues --   -0.95942  -0.91010  -0.86449  -0.85980  -0.83831
 Alpha  occ. eigenvalues --   -0.78451  -0.76040  -0.74500  -0.69569  -0.69236
 Alpha  occ. eigenvalues --   -0.68527  -0.68022  -0.67802  -0.65055  -0.64556
 Alpha  occ. eigenvalues --   -0.62757  -0.61589  -0.60101  -0.59978  -0.58968
 Alpha  occ. eigenvalues --   -0.56861  -0.55104  -0.54664  -0.52604  -0.46950
 Alpha  occ. eigenvalues --   -0.46002  -0.44665
 Alpha virt. eigenvalues --   -0.26139  -0.14491  -0.14053  -0.12545  -0.11185
 Alpha virt. eigenvalues --   -0.10102  -0.09261  -0.08079  -0.07932  -0.07488
 Alpha virt. eigenvalues --   -0.07230  -0.07095  -0.05637  -0.05582  -0.05299

 Mulliken charges:
               1
     1  C    0.086850
     2  C   -0.417101
     3  C   -0.440561
     4  C    0.068278
     5  C    0.067301
     6  C   -0.440528
     7  C   -0.416110
     8  C    0.087176
     9  C   -0.349985
    10  C    0.092011
    11  C   -0.548194
    12  C    0.570399
    13  C   -0.544239
    14  C    0.570745
    15  H    0.235711
    16  H    0.255331
    17  H    0.255069
    18  H    0.219376
    19  H    0.190147
    20  H    0.219424
    21  H    0.255157
    22  H    0.255485
    23  H    0.235542
    24  H    0.251271
    25  H    0.241445
 Sum of Mulliken charges =   1.00000

 Dipole moment (field-independent basis, Debye):
    X=             -0.0025    Y=              0.1771    Z=             -0.0017  Tot=              0.1771
 Quadrupole moment (field-independent basis, Debye-Ang):
   XX=            -31.4647   YY=            -56.2613   ZZ=            -84.0133
   XY=             -0.0014   XZ=              0.0024   YZ=              0.1917

 Normal termination of Gaussian 16 at Thu Jul 28 16:48:15 2022.
