 Gaussian 16, Revision C.01,
 Gaussian 16:  ES64L-G16RevC.01  3-Jul-2019

 ---------------------------------------------------------------
 #n M062X/6-311++G(d,p) TD(NStates=1) EmpiricalDispersion=GD3 SP
 ---------------------------------------------------------------

 -----
 SP_25
 -----
 Symbolic Z-matrix:
 Charge =  1 Multiplicity = 1

                         Standard orientation:
 ---------------------------------------------------------------------
 Center     Atomic      Atomic             Coordinates (Angstroms)
 Number     Number       Type             X           Y           Z
 ---------------------------------------------------------------------
      1          6           0       -1.360447    0.000680    2.492955
      2          6           0       -0.672018    0.005084    3.697983
      3          6           0        0.713814    0.005257    3.677661
      4          6           0        1.407560   -0.001790    2.458606
      5          6           0        1.407560   -0.001790   -2.458606
      6          6           0        0.713814    0.005257   -3.677661
      7          6           0       -0.672018    0.005084   -3.697983
      8          6           0       -1.360447    0.000680   -2.492955
      9          6           0       -1.453373   -0.002204   -0.000000
     10          6           0        1.429230   -0.006095    0.000000
     11          6           0       -0.677050   -0.004988    1.265880
     12          6           0        0.730820   -0.001968    1.236871
     13          6           0       -0.677050   -0.004988   -1.265880
     14          6           0        0.730820   -0.001968   -1.236871
     15          1           0       -2.443632   -0.008836    2.488296
     16          1           0       -1.211713    0.002810    4.633878
     17          1           0        1.272344    0.003965    4.609487
     18          1           0        2.490052    0.007123    2.463125
     19          1           0        2.510292   -0.000388    0.000000
     20          1           0        2.490052    0.007123   -2.463125
     21          1           0        1.272344    0.003965   -4.609487
     22          1           0       -1.211713    0.002810   -4.633878
     23          1           0       -2.443632   -0.008836   -2.488296
     24          1           0       -2.149618    0.865951   -0.000000
     25          1           0       -2.142054   -0.853202   -0.000000
 ---------------------------------------------------------------------

 SCF Done:  E(RM062X) =  -539.760163968     A.U. after   15 cycles

 Excitation energies and oscillator strengths:

 Excited State   1:      Singlet-A'     2.8303 eV  438.06 nm  f=0.0291  <S**2>=0.000
      47 -> 48         0.70425
 This state for optimization and/or second-order correction.
 Total Energy, E(TD-HF/TD-DFT) =  -539.656153421
 Copying the excited state density for this state as the 1-particle RhoCI density.

 The electronic state is 1-A'.
 Alpha  occ. eigenvalues --  -10.77670 -10.73226 -10.73225 -10.72395 -10.72394
 Alpha  occ. eigenvalues --  -10.71317 -10.71317 -10.70977 -10.70974 -10.70974
 Alpha  occ. eigenvalues --  -10.69917 -10.69917 -10.69648 -10.69647  -1.16476
 Alpha  occ. eigenvalues --   -1.12571  -1.07001  -1.05696  -1.01418  -1.00169
 Alpha  occ. eigenvalues --   -0.95821  -0.91045  -0.86424  -0.85921  -0.83820
 Alpha  occ. eigenvalues --   -0.78409  -0.76034  -0.74439  -0.69559  -0.69230
 Alpha  occ. eigenvalues --   -0.68494  -0.68158  -0.68047  -0.64818  -0.64352
 Alpha  occ. eigenvalues --   -0.63000  -0.61798  -0.60037  -0.59756  -0.59064
 Alpha  occ. eigenvalues --   -0.56886  -0.55188  -0.54802  -0.52479  -0.46702
 Alpha  occ. eigenvalues --   -0.46050  -0.44546
 Alpha virt. eigenvalues --   -0.26099  -0.14617  -0.14085  -0.12713  -0.11180
 Alpha virt. eigenvalues --   -0.10089  -0.09238  -0.08003  -0.07961  -0.07479
 Alpha virt. eigenvalues --   -0.07205  -0.07137  -0.05641  -0.05581  -0.05323

 Mulliken charges:
               1
     1  C    0.095085
     2  C   -0.411282
     3  C   -0.441014
     4  C    0.020366
     5  C    0.020366
     6  C   -0.441014
     7  C   -0.411282
     8  C    0.095085
     9  C   -0.336229
    10  C    0.097422
    11  C   -0.623745
    12  C    0.670068
    13  C   -0.623745
    14  C    0.670068
    15  H    0.237092
    16  H    0.256095
    17  H    0.250573
    18  H    0.221537
    19  H    0.190784
    20  H    0.221537
    21  H    0.250573
    22  H    0.256095
    23  H    0.237092
    24  H    0.250530
    25  H    0.247945
 Sum of Mulliken charges =   1.00000

 Dipole moment (field-independent basis, Debye):
    X=              0.1855    Y=             -0.0000    Z=              0.0000  Tot=              0.1855
 Quadrupole moment (field-independent basis, Debye-Ang):
   XX=            -56.2631   YY=            -84.1096   ZZ=            -31.2029
   XY=              0.0481   XZ=              0.0000   YZ=             -0.0000

 Normal termination of Gaussian 16 at Thu Jul 28 15:27:00 2022.
