 Gaussian 16, Revision C.01,
 Gaussian 16:  ES64L-G16RevC.01  3-Jul-2019

 ---------------------------------------------------------------
 #n M062X/6-311++G(d,p) TD(NStates=1) EmpiricalDispersion=GD3 SP
 ---------------------------------------------------------------

 -----
 SP_50
 -----
 Symbolic Z-matrix:
 Charge =  1 Multiplicity = 1

                         Standard orientation:
 ---------------------------------------------------------------------
 Center     Atomic      Atomic             Coordinates (Angstroms)
 Number     Number       Type             X           Y           Z
 ---------------------------------------------------------------------
      1          6           0        2.492171   -1.360221   -0.001296
      2          6           0        3.701216   -0.671677   -0.000065
      3          6           0        3.682802    0.714141    0.000266
      4          6           0        2.462838    1.407746    0.000468
      5          6           0       -2.463474    1.407330   -0.000504
      6          6           0       -3.684920    0.713519   -0.000288
      7          6           0       -3.701800   -0.672301    0.000073
      8          6           0       -2.493139   -1.360641    0.001318
      9          6           0        0.004524   -1.453369    0.000063
     10          6           0       -0.000320    1.429189   -0.000018
     11          6           0        1.262163   -0.676958    0.000154
     12          6           0        1.237710    0.730908    0.000684
     13          6           0       -1.261947   -0.677172   -0.000146
     14          6           0       -1.237231    0.730700   -0.000705
     15          1           0        2.487629   -2.443437   -0.001586
     16          1           0        4.636106   -1.211298   -0.000037
     17          1           0        4.607906    1.272738    0.000780
     18          1           0        2.467191    2.490267    0.000858
     19          1           0       -0.000311    2.510266   -0.000029
     20          1           0       -2.467909    2.489851   -0.000916
     21          1           0       -4.610618    1.271960   -0.000814
     22          1           0       -4.637400   -1.212080    0.000056
     23          1           0       -2.488514   -2.443857    0.001630
     24          1           0        0.000977   -2.144678    0.859604
     25          1           0        0.001387   -2.146896   -0.859566
 ---------------------------------------------------------------------

 SCF Done:  E(RM062X) =  -539.760211263     A.U. after   15 cycles

 Excitation energies and oscillator strengths:

 Excited State   1:      Singlet-A      2.8228 eV  439.22 nm  f=0.0287  <S**2>=0.000
      47 -> 48         0.70426
 This state for optimization and/or second-order correction.
 Total Energy, E(TD-HF/TD-DFT) =  -539.656474724
 Copying the excited state density for this state as the 1-particle RhoCI density.

 The electronic state is 1-A.
 Alpha  occ. eigenvalues --  -10.77665 -10.73268 -10.73213 -10.72437 -10.72434
 Alpha  occ. eigenvalues --  -10.71383 -10.71354 -10.71010 -10.71000 -10.70979
 Alpha  occ. eigenvalues --  -10.69983 -10.69962 -10.69643 -10.69616  -1.16443
 Alpha  occ. eigenvalues --   -1.12466  -1.06945  -1.05732  -1.01313  -1.00185
 Alpha  occ. eigenvalues --   -0.95782  -0.91056  -0.86419  -0.85902  -0.83816
 Alpha  occ. eigenvalues --   -0.78400  -0.76028  -0.74418  -0.69561  -0.69246
 Alpha  occ. eigenvalues --   -0.68505  -0.68193  -0.68102  -0.64739  -0.64284
 Alpha  occ. eigenvalues --   -0.63066  -0.61866  -0.60003  -0.59679  -0.59093
 Alpha  occ. eigenvalues --   -0.56897  -0.55216  -0.54837  -0.52438  -0.46625
 Alpha  occ. eigenvalues --   -0.46056  -0.44501
 Alpha virt. eigenvalues --   -0.26088  -0.14669  -0.14098  -0.12773  -0.11179
 Alpha virt. eigenvalues --   -0.10086  -0.09230  -0.07983  -0.07970  -0.07476
 Alpha virt. eigenvalues --   -0.07203  -0.07146  -0.05643  -0.05581  -0.05332

 Mulliken charges:
               1
     1  C    0.092234
     2  C   -0.408111
     3  C   -0.440339
     4  C    0.014368
     5  C    0.015008
     6  C   -0.439861
     7  C   -0.405352
     8  C    0.094126
     9  C   -0.334003
    10  C    0.093239
    11  C   -0.639170
    12  C    0.687192
    13  C   -0.633640
    14  C    0.684823
    15  H    0.237337
    16  H    0.256223
    17  H    0.248742
    18  H    0.221988
    19  H    0.190404
    20  H    0.222034
    21  H    0.249035
    22  H    0.256386
    23  H    0.237228
    24  H    0.250173
    25  H    0.249939
 Sum of Mulliken charges =   1.00000

 Dipole moment (field-independent basis, Debye):
    X=             -0.0053    Y=              0.1876    Z=              0.0003  Tot=              0.1877
 Quadrupole moment (field-independent basis, Debye-Ang):
   XX=            -31.1160   YY=            -56.2627   ZZ=            -84.1419
   XY=             -0.0029   XZ=              0.0049   YZ=              0.0007

 Normal termination of Gaussian 16 at Thu Jul 28 15:53:02 2022.
