 Gaussian 16, Revision C.01,
 Gaussian 16:  ES64L-G16RevC.01  3-Jul-2019

 ---------------------------------------------------------------
 #n M062X/6-311++G(d,p) TD(NStates=1) EmpiricalDispersion=GD3 SP
 ---------------------------------------------------------------

 ------
 SP_-25
 ------
 Symbolic Z-matrix:
 Charge =  1 Multiplicity = 1

                         Standard orientation:
 ---------------------------------------------------------------------
 Center     Atomic      Atomic             Coordinates (Angstroms)
 Number     Number       Type             X           Y           Z
 ---------------------------------------------------------------------
      1          6           0        2.494261   -1.360924    0.003960
      2          6           0        3.693216   -0.672715    0.012819
      3          6           0        3.670217    0.713193    0.012674
      4          6           0        2.452328    1.407321   -0.005295
      5          6           0       -2.451234    1.408024   -0.003591
      6          6           0       -3.666506    0.714263    0.013647
      7          6           0       -3.692176   -0.671625    0.012587
      8          6           0       -2.492551   -1.360140   -0.000601
      9          6           0       -0.007911   -1.453394   -0.005616
     10          6           0        0.000546    1.429443   -0.015204
     11          6           0        1.271426   -0.677153   -0.012746
     12          6           0        1.235546    0.730734   -0.006118
     13          6           0       -1.271809   -0.676784   -0.012206
     14          6           0       -1.236395    0.731071   -0.003682
     15          1           0        2.489413   -2.443949   -0.019323
     16          1           0        4.630707   -1.212522    0.007079
     17          1           0        4.612196    1.271653    0.008535
     18          1           0        2.457110    2.489669    0.016306
     19          1           0        0.000531    2.510428   -0.000917
     20          1           0       -2.455864    2.490358    0.019413
     21          1           0       -4.607453    1.272980    0.011346
     22          1           0       -4.628425   -1.211158    0.006932
     23          1           0       -2.487857   -2.443154   -0.024938
     24          1           0       -0.001693   -2.157489    0.875412
     25          1           0       -0.002410   -2.134696   -0.843611
 ---------------------------------------------------------------------

 SCF Done:  E(RM062X) =  -539.758894235     A.U. after   15 cycles

 Excitation energies and oscillator strengths:

 Excited State   1:      Singlet-A      2.8396 eV  436.63 nm  f=0.0296  <S**2>=0.000
      47 -> 48         0.70423
 This state for optimization and/or second-order correction.
 Total Energy, E(TD-HF/TD-DFT) =  -539.654541990
 Copying the excited state density for this state as the 1-particle RhoCI density.

 The electronic state is 1-A.
 Alpha  occ. eigenvalues --  -10.77678 -10.73253 -10.73156 -10.72337 -10.72332
 Alpha  occ. eigenvalues --  -10.71266 -10.71214 -10.70973 -10.70937 -10.70920
 Alpha  occ. eigenvalues --  -10.69856 -10.69818 -10.69700 -10.69653  -1.16530
 Alpha  occ. eigenvalues --   -1.12728  -1.07089  -1.05645  -1.01582  -1.00134
 Alpha  occ. eigenvalues --   -0.95882  -0.91029  -0.86437  -0.85948  -0.83826
 Alpha  occ. eigenvalues --   -0.78427  -0.76040  -0.74470  -0.69564  -0.69224
 Alpha  occ. eigenvalues --   -0.68506  -0.68095  -0.67930  -0.64937  -0.64454
 Alpha  occ. eigenvalues --   -0.62891  -0.61690  -0.60076  -0.59867  -0.59018
 Alpha  occ. eigenvalues --   -0.56872  -0.55152  -0.54729  -0.52541  -0.46823
 Alpha  occ. eigenvalues --   -0.46030  -0.44608
 Alpha virt. eigenvalues --   -0.26118  -0.14549  -0.14068  -0.12626  -0.11182
 Alpha virt. eigenvalues --   -0.10095  -0.09249  -0.08041  -0.07944  -0.07484
 Alpha virt. eigenvalues --   -0.07214  -0.07119  -0.05639  -0.05581  -0.05310

 Mulliken charges:
               1
     1  C    0.093133
     2  C   -0.413994
     3  C   -0.441811
     4  C    0.042346
     5  C    0.043693
     6  C   -0.442238
     7  C   -0.417808
     8  C    0.090821
     9  C   -0.336621
    10  C    0.100302
    11  C   -0.581562
    12  C    0.620089
    13  C   -0.595122
    14  C    0.620867
    15  H    0.236145
    16  H    0.256009
    17  H    0.253141
    18  H    0.220698
    19  H    0.190793
    20  H    0.220550
    21  H    0.252748
    22  H    0.255571
    23  H    0.236572
    24  H    0.250768
    25  H    0.244911
 Sum of Mulliken charges =   1.00000

 Dipole moment (field-independent basis, Debye):
    X=              0.0089    Y=              0.1816    Z=             -0.0011  Tot=              0.1819
 Quadrupole moment (field-independent basis, Debye-Ang):
   XX=            -31.3329   YY=            -56.2625   ZZ=            -84.0613
   XY=              0.0049   XZ=             -0.0085   YZ=              0.1188

 Normal termination of Gaussian 16 at Thu Jul 28 14:37:18 2022.
