 Gaussian 16, Revision C.01,
 Gaussian 16:  ES64L-G16RevC.01  3-Jul-2019

 ---------------------------------------------------------------
 #n M062X/6-311++G(d,p) TD(NStates=1) EmpiricalDispersion=GD3 SP
 ---------------------------------------------------------------

 ------
 SP_150
 ------
 Symbolic Z-matrix:
 Charge =  1 Multiplicity = 1

                         Standard orientation:
 ---------------------------------------------------------------------
 Center     Atomic      Atomic             Coordinates (Angstroms)
 Number     Number       Type             X           Y           Z
 ---------------------------------------------------------------------
      1          6           0       -1.361013    0.004065    2.494455
      2          6           0       -0.673029    0.030489    3.680358
      3          6           0        0.713246    0.031540    3.646661
      4          6           0        1.408312   -0.010723    2.435856
      5          6           0        1.408312   -0.010723   -2.435856
      6          6           0        0.713246    0.031540   -3.646661
      7          6           0       -0.673029    0.030489   -3.680358
      8          6           0       -1.361013    0.004065   -2.494455
      9          6           0       -1.453526   -0.013233   -0.000000
     10          6           0        1.430653   -0.036542    0.000000
     11          6           0       -0.676511   -0.029924    1.285005
     12          6           0        0.731370   -0.011796    1.233871
     13          6           0       -0.676511   -0.029924   -1.285005
     14          6           0        0.731370   -0.011796   -1.233871
     15          1           0       -2.443099   -0.053024    2.489421
     16          1           0       -1.212556    0.016839    4.619503
     17          1           0        1.272164    0.023794    4.610612
     18          1           0        2.489798    0.042749    2.441000
     19          1           0        2.511202   -0.002301    0.000000
     20          1           0        2.489798    0.042749   -2.441000
     21          1           0        1.272164    0.023794   -4.610612
     22          1           0       -1.212556    0.016839   -4.619503
     23          1           0       -2.443099   -0.053024   -2.489421
     24          1           0       -2.170240    0.897496   -0.000000
     25          1           0       -2.124849   -0.821074   -0.000000
 ---------------------------------------------------------------------

 SCF Done:  E(RM062X) =  -539.751595763     A.U. after   15 cycles

 Excitation energies and oscillator strengths:

 Excited State   1:      Singlet-A'     2.8530 eV  434.57 nm  f=0.0307  <S**2>=0.000
      47 -> 48         0.70418
 This state for optimization and/or second-order correction.
 Total Energy, E(TD-HF/TD-DFT) =  -539.646748663
 Copying the excited state density for this state as the 1-particle RhoCI density.

 The electronic state is 1-A'.
 Alpha  occ. eigenvalues --  -10.77704 -10.73167 -10.73166 -10.72205 -10.72203
 Alpha  occ. eigenvalues --  -10.71064 -10.71064 -10.70958 -10.70826 -10.70826
 Alpha  occ. eigenvalues --  -10.69756 -10.69756 -10.69657 -10.69657  -1.16663
 Alpha  occ. eigenvalues --   -1.13091  -1.07306  -1.05510  -1.01986  -1.00026
 Alpha  occ. eigenvalues --   -0.96025  -0.90986  -0.86470  -0.86021  -0.83835
 Alpha  occ. eigenvalues --   -0.78492  -0.76036  -0.74540  -0.69589  -0.69276
 Alpha  occ. eigenvalues --   -0.68563  -0.67915  -0.67615  -0.65211  -0.64694
 Alpha  occ. eigenvalues --   -0.62558  -0.61455  -0.60119  -0.60108  -0.58894
 Alpha  occ. eigenvalues --   -0.56849  -0.55041  -0.54557  -0.52688  -0.47123
 Alpha  occ. eigenvalues --   -0.45956  -0.44732
 Alpha virt. eigenvalues --   -0.26174  -0.14434  -0.14037  -0.12446  -0.11190
 Alpha virt. eigenvalues --   -0.10114  -0.09278  -0.08133  -0.07918  -0.07493
 Alpha virt. eigenvalues --   -0.07251  -0.07066  -0.05635  -0.05584  -0.05289

 Mulliken charges:
               1
     1  C    0.081781
     2  C   -0.416503
     3  C   -0.436081
     4  C    0.092124
     5  C    0.092124
     6  C   -0.436081
     7  C   -0.416503
     8  C    0.081781
     9  C   -0.380075
    10  C    0.072457
    11  C   -0.492504
    12  C    0.522263
    13  C   -0.492504
    14  C    0.522263
    15  H    0.234817
    16  H    0.254714
    17  H    0.257768
    18  H    0.217054
    19  H    0.188658
    20  H    0.217054
    21  H    0.257768
    22  H    0.254714
    23  H    0.234817
    24  H    0.251030
    25  H    0.237068
 Sum of Mulliken charges =   1.00000

 Dipole moment (field-independent basis, Debye):
    X=              0.1699    Y=             -0.0045    Z=              0.0000  Tot=              0.1700
 Quadrupole moment (field-independent basis, Debye-Ang):
   XX=            -56.2577   YY=            -83.9486   ZZ=            -31.6453
   XY=              0.2854   XZ=              0.0000   YZ=              0.0000

 Normal termination of Gaussian 16 at Thu Jul 28 17:04:20 2022.
