 Gaussian 16, Revision C.01,
 Gaussian 16:  ES64L-G16RevC.01  3-Jul-2019

 ---------------------------------------------------------------
 #n M062X/6-311++G(d,p) TD(NStates=1) EmpiricalDispersion=GD3 SP
 ---------------------------------------------------------------

 -------
 SP_-150
 -------
 Symbolic Z-matrix:
 Charge =  1 Multiplicity = 1

                         Standard orientation:
 ---------------------------------------------------------------------
 Center     Atomic      Atomic             Coordinates (Angstroms)
 Number     Number       Type             X           Y           Z
 ---------------------------------------------------------------------
      1          6           0       -2.491662   -1.360897    0.002078
      2          6           0       -3.717583   -0.672809    0.022820
      3          6           0       -3.712554    0.713261    0.023854
      4          6           0       -2.483876    1.407808   -0.007698
      5          6           0        2.483386    1.408139   -0.008426
      6          6           0        3.710968    0.713742    0.023442
      7          6           0        3.717158   -0.672338    0.022931
      8          6           0        2.490948   -1.360619    0.004047
      9          6           0        0.003397   -1.453458   -0.009875
     10          6           0       -0.000250    1.430012   -0.027430
     11          6           0       -1.244763   -0.676835   -0.022333
     12          6           0       -1.239996    0.731033   -0.008340
     13          6           0        1.244922   -0.676672   -0.022549
     14          6           0        1.240346    0.731212   -0.009379
     15          1           0       -2.487388   -2.443473   -0.040958
     16          1           0       -4.650169   -1.212472    0.012603
     17          1           0       -4.609268    1.271940    0.018421
     18          1           0       -2.487736    2.489741    0.032700
     19          1           0       -0.000243    2.510793   -0.001757
     20          1           0        2.487189    2.490084    0.031371
     21          1           0        4.607230    1.272550    0.017242
     22          1           0        4.649213   -1.211882    0.012684
     23          1           0        2.486729   -2.443205   -0.038538
     24          1           0        0.000747   -2.130586   -0.830748
     25          1           0        0.001053   -2.162964    0.888118
 ---------------------------------------------------------------------

 SCF Done:  E(RM062X) =  -539.753753132     A.U. after   15 cycles

 Excitation energies and oscillator strengths:

 Excited State   1:      Singlet-A      2.7779 eV  446.32 nm  f=0.0269  <S**2>=0.000
      47 -> 48         0.70427
 This state for optimization and/or second-order correction.
 Total Energy, E(TD-HF/TD-DFT) =  -539.651666447
 Copying the excited state density for this state as the 1-particle RhoCI density.

 The electronic state is 1-A.
 Alpha  occ. eigenvalues --  -10.77654 -10.73341 -10.73300 -10.72633 -10.72631
 Alpha  occ. eigenvalues --  -10.71618 -10.71596 -10.71153 -10.71145 -10.70980
 Alpha  occ. eigenvalues --  -10.70240 -10.70224 -10.69574 -10.69553  -1.16305
 Alpha  occ. eigenvalues --   -1.11986  -1.06715  -1.05867  -1.00927  -1.00159
 Alpha  occ. eigenvalues --   -0.95610  -0.91092  -0.86404  -0.85824  -0.83792
 Alpha  occ. eigenvalues --   -0.78394  -0.75976  -0.74321  -0.69619  -0.69439
 Alpha  occ. eigenvalues --   -0.68784  -0.68278  -0.68070  -0.64399  -0.63988
 Alpha  occ. eigenvalues --   -0.63240  -0.62157  -0.59795  -0.59318  -0.59199
 Alpha  occ. eigenvalues --   -0.56972  -0.55316  -0.54947  -0.52255  -0.46389
 Alpha  occ. eigenvalues --   -0.45964  -0.44275
 Alpha virt. eigenvalues --   -0.26059  -0.14966  -0.14168  -0.13076  -0.11177
 Alpha virt. eigenvalues --   -0.10077  -0.09196  -0.08047  -0.07879  -0.07459
 Alpha virt. eigenvalues --   -0.07254  -0.07130  -0.05650  -0.05584  -0.05383

 Mulliken charges:
               1
     1  C    0.050132
     2  C   -0.381539
     3  C   -0.441930
     4  C    0.088862
     5  C    0.087380
     6  C   -0.442906
     7  C   -0.384507
     8  C    0.048525
     9  C   -0.265727
    10  C    0.081174
    11  C   -0.583007
    12  C    0.560536
    13  C   -0.582085
    14  C    0.563813
    15  H    0.234769
    16  H    0.257348
    17  H    0.240842
    18  H    0.222353
    19  H    0.185736
    20  H    0.222369
    21  H    0.240549
    22  H    0.257333
    23  H    0.234675
    24  H    0.246306
    25  H    0.259001
 Sum of Mulliken charges =   1.00000

 Dipole moment (field-independent basis, Debye):
    X=             -0.0042    Y=              0.1929    Z=              0.0042  Tot=              0.1930
 Quadrupole moment (field-independent basis, Debye-Ang):
   XX=            -30.7281   YY=            -56.2555   ZZ=            -84.2874
   XY=             -0.0024   XZ=             -0.0037   YZ=              0.2168

 Normal termination of Gaussian 16 at Thu Jul 28 13:07:01 2022.
