 Gaussian 16, Revision C.01,
 Gaussian 16:  ES64L-G16RevC.01  3-Jul-2019

 ---------------------------------------------------------
 #n M062X/cc-pvtz TD(NStates=1) EmpiricalDispersion=GD3 SP
 ---------------------------------------------------------

 -----
 SP_-3
 -----
 Symbolic Z-matrix:
 Charge =  1 Multiplicity = 1

                         Standard orientation:
 ---------------------------------------------------------------------
 Center     Atomic      Atomic             Coordinates (Angstroms)
 Number     Number       Type             X           Y           Z
 ---------------------------------------------------------------------
      1          6           0       -2.493713   -1.397607   -0.005989
      2          6           0       -3.701999   -0.687302   -0.050513
      3          6           0       -3.683371    0.731485   -0.049563
      4          6           0       -2.462154    1.445370   -0.004085
      5          6           0        2.464192    1.369804   -0.004135
      6          6           0        3.684405    0.696150   -0.049586
      7          6           0        3.701026   -0.656662   -0.050492
      8          6           0        2.491743   -1.323217   -0.005939
      9          6           0       -0.001052   -1.453446    0.044974
     10          6           0        0.001035    1.429153    0.046905
     11          6           0       -1.262596   -0.685128    0.039488
     12          6           0       -1.236966    0.737653    0.040441
     13          6           0        1.261616   -0.668956    0.039499
     14          6           0        1.238024    0.723861    0.040432
     15          1           0       -2.489932   -2.528810   -0.006747
     16          1           0       -4.637700   -1.241306   -0.077885
     17          1           0       -4.608356    1.305772   -0.076179
     18          1           0       -2.465638    2.572873   -0.003330
     19          1           0        0.001817    2.510250    0.050629
     20          1           0        2.469244    2.407300   -0.003440
     21          1           0        4.610198    1.239098   -0.076222
     22          1           0        4.635945   -1.182021   -0.077844
     23          1           0        2.486393   -2.358413   -0.006632
     24          1           0       -0.001554   -2.145270   -0.815090
     25          1           0       -0.001554   -2.146421    0.904110
 ---------------------------------------------------------------------

 SCF Done:  E(RM062X) =  -539.804549517     A.U. after   14 cycles

 Excitation energies and oscillator strengths:

 Excited State   1:      Singlet-A      2.8133 eV  440.71 nm  f=0.0294  <S**2>=0.000
      47 -> 48         0.70297
 This state for optimization and/or second-order correction.
 Total Energy, E(TD-HF/TD-DFT) =  -539.701163198
 Copying the excited state density for this state as the 1-particle RhoCI density.

 The electronic state is 1-A.
 Alpha  occ. eigenvalues --  -10.77525 -10.73843 -10.72761 -10.72395 -10.72180
 Alpha  occ. eigenvalues --  -10.71887 -10.71765 -10.70928 -10.70841 -10.70360
 Alpha  occ. eigenvalues --  -10.70281 -10.69943 -10.68742 -10.68696  -1.16300
 Alpha  occ. eigenvalues --   -1.12279  -1.06754  -1.05564  -1.01157  -1.00043
 Alpha  occ. eigenvalues --   -0.95616  -0.90862  -0.86330  -0.85696  -0.83582
 Alpha  occ. eigenvalues --   -0.78213  -0.75913  -0.74069  -0.69412  -0.69055
 Alpha  occ. eigenvalues --   -0.68320  -0.68013  -0.67955  -0.64447  -0.63980
 Alpha  occ. eigenvalues --   -0.62763  -0.61642  -0.60127  -0.59463  -0.58866
 Alpha  occ. eigenvalues --   -0.56683  -0.54963  -0.54574  -0.52411  -0.46546
 Alpha  occ. eigenvalues --   -0.46029  -0.44390
 Alpha virt. eigenvalues --   -0.25960  -0.14538  -0.13926  -0.12426  -0.06825
 Alpha virt. eigenvalues --   -0.05558  -0.05406  -0.04150  -0.02640  -0.01701
 Alpha virt. eigenvalues --   -0.00267   0.00309   0.00547   0.01842   0.02373

 Mulliken charges:
               1
     1  C   -0.097889
     2  C   -0.036942
     3  C   -0.120500
     4  C   -0.072972
     5  C   -0.056393
     6  C   -0.118758
     7  C   -0.022096
     8  C   -0.108661
     9  C   -0.308512
    10  C   -0.065347
    11  C    0.100963
    12  C    0.054545
    13  C    0.106947
    14  C    0.056948
    15  H    0.140542
    16  H    0.155239
    17  H    0.150141
    18  H    0.136306
    19  H    0.160028
    20  H    0.128333
    21  H    0.135509
    22  H    0.140784
    23  H    0.136131
    24  H    0.201089
    25  H    0.204566
 Sum of Mulliken charges =   1.00000

 Dipole moment (field-independent basis, Debye):
    X=             -0.3566    Y=              0.1925    Z=             -0.0501  Tot=              0.4083
 Quadrupole moment (field-independent basis, Debye-Ang):
   XX=            -30.9562   YY=            -56.3416   ZZ=            -83.3610
   XY=              0.2287   XZ=              0.0135   YZ=              0.0618

 Normal termination of Gaussian 16 at Mon Jul 25 20:21:50 2022.
