 Gaussian 16, Revision C.01,
 Gaussian 16:  ES64L-G16RevC.01  3-Jul-2019

 ---------------------------------------------------------
 #n M062X/cc-pvtz TD(NStates=1) EmpiricalDispersion=GD3 SP
 ---------------------------------------------------------

 -----
 SP_-4
 -----
 Symbolic Z-matrix:
 Charge =  1 Multiplicity = 1

                         Standard orientation:
 ---------------------------------------------------------------------
 Center     Atomic      Atomic             Coordinates (Angstroms)
 Number     Number       Type             X           Y           Z
 ---------------------------------------------------------------------
      1          6           0       -2.494062   -1.410002   -0.007997
      2          6           0       -3.702170   -0.692382   -0.067356
      3          6           0       -3.683190    0.737400   -0.066079
      4          6           0       -2.461794    1.457967   -0.005435
      5          6           0        2.464511    1.357211   -0.005524
      6          6           0        3.684568    0.690287   -0.066119
      7          6           0        3.700873   -0.651529   -0.067318
      8          6           0        2.491436   -1.310815   -0.007908
      9          6           0       -0.001403   -1.453469    0.059965
     10          6           0        0.001380    1.429128    0.062540
     11          6           0       -1.262765   -0.687844    0.052648
     12          6           0       -1.236786    0.739931    0.053924
     13          6           0        1.261457   -0.666281    0.052668
     14          6           0        1.238197    0.721541    0.053908
     15          1           0       -2.490570   -2.557205   -0.009022
     16          1           0       -4.638010   -1.251146   -0.103856
     17          1           0       -4.608031    1.316925   -0.101561
     18          1           0       -2.464990    2.600470   -0.004414
     19          1           0        0.002424    2.510224    0.067506
     20          1           0        2.469799    2.379706   -0.004610
     21          1           0        4.610488    1.228025   -0.101639
     22          1           0        4.635670   -1.172100   -0.103783
     23          1           0        2.485852   -2.330010   -0.008818
     24          1           0       -0.002072   -2.145101   -0.800254
     25          1           0       -0.002072   -2.146637    0.918945
 ---------------------------------------------------------------------

 SCF Done:  E(RM062X) =  -539.795723748     A.U. after   14 cycles

 Excitation energies and oscillator strengths:

 Excited State   1:      Singlet-A      2.8062 eV  441.82 nm  f=0.0307  <S**2>=0.000
      47 -> 48         0.70224
 This state for optimization and/or second-order correction.
 Total Energy, E(TD-HF/TD-DFT) =  -539.692597117
 Copying the excited state density for this state as the 1-particle RhoCI density.

 The electronic state is 1-A.
 Alpha  occ. eigenvalues --  -10.77516 -10.74090 -10.72929 -10.72491 -10.72209
 Alpha  occ. eigenvalues --  -10.72164 -10.71603 -10.71286 -10.70843 -10.70637
 Alpha  occ. eigenvalues --  -10.69962 -10.69620 -10.68421 -10.68376  -1.16333
 Alpha  occ. eigenvalues --   -1.12271  -1.06737  -1.05555  -1.01155  -1.00050
 Alpha  occ. eigenvalues --   -0.95601  -0.90850  -0.86416  -0.85669  -0.83531
 Alpha  occ. eigenvalues --   -0.78192  -0.76002  -0.73980  -0.69456  -0.69042
 Alpha  occ. eigenvalues --   -0.68333  -0.68011  -0.67934  -0.64403  -0.63920
 Alpha  occ. eigenvalues --   -0.62720  -0.61627  -0.60213  -0.59361  -0.58843
 Alpha  occ. eigenvalues --   -0.56674  -0.54942  -0.54551  -0.52408  -0.46522
 Alpha  occ. eigenvalues --   -0.46052  -0.44353
 Alpha virt. eigenvalues --   -0.25960  -0.14627  -0.13916  -0.12382  -0.06805
 Alpha virt. eigenvalues --   -0.05596  -0.05441  -0.04206  -0.02615  -0.01759
 Alpha virt. eigenvalues --   -0.00315   0.00257   0.00515   0.01792   0.02406

 Mulliken charges:
               1
     1  C   -0.098489
     2  C   -0.038722
     3  C   -0.120367
     4  C   -0.077208
     5  C   -0.055955
     6  C   -0.117751
     7  C   -0.019376
     8  C   -0.112887
     9  C   -0.308258
    10  C   -0.064107
    11  C    0.100453
    12  C    0.054204
    13  C    0.108034
    14  C    0.057578
    15  H    0.142210
    16  H    0.157656
    17  H    0.152534
    18  H    0.138344
    19  H    0.160050
    20  H    0.128008
    21  H    0.133221
    22  H    0.138542
    23  H    0.136671
    24  H    0.200504
    25  H    0.205112
 Sum of Mulliken charges =   1.00000

 Dipole moment (field-independent basis, Debye):
    X=             -0.4745    Y=              0.1892    Z=             -0.0668  Tot=              0.5152
 Quadrupole moment (field-independent basis, Debye-Ang):
   XX=            -30.9574   YY=            -56.2886   ZZ=            -83.3526
   XY=              0.3047   XZ=              0.0240   YZ=              0.0823

 Normal termination of Gaussian 16 at Mon Jul 25 20:12:12 2022.
