 Gaussian 16, Revision C.01,
 Gaussian 16:  ES64L-G16RevC.01  3-Jul-2019

 ---------------------------------------------------------
 #n M062X/cc-pvtz TD(NStates=1) EmpiricalDispersion=GD3 SP
 ---------------------------------------------------------

 ----
 SP_0
 ----
 Symbolic Z-matrix:
 Charge =  1 Multiplicity = 1

                         Standard orientation:
 ---------------------------------------------------------------------
 Center     Atomic      Atomic             Coordinates (Angstroms)
 Number     Number       Type             X           Y           Z
 ---------------------------------------------------------------------
      1          6           0        0.000000    2.492700    1.360416
      2          6           0        0.000000    3.701500    0.672016
      3          6           0        0.000000    3.683900   -0.713784
      4          6           0        0.000000    2.463200   -1.407584
      5          6           0       -0.000000   -2.463200   -1.407584
      6          6           0       -0.000000   -3.683900   -0.713784
      7          6           0       -0.000000   -3.701500    0.672016
      8          6           0       -0.000000   -2.492700    1.360416
      9          6           0       -0.000000   -0.000000    1.453416
     10          6           0        0.000000    0.000000   -1.429184
     11          6           0        0.000000    1.262100    0.677016
     12          6           0        0.000000    1.237500   -0.730784
     13          6           0       -0.000000   -1.262100    0.677016
     14          6           0       -0.000000   -1.237500   -0.730784
     15          1           0        0.000000    2.488100    2.443616
     16          1           0        0.000000    4.636800    1.211716
     17          1           0        0.000000    4.609300   -1.272384
     18          1           0        0.000000    2.467500   -2.490084
     19          1           0        0.000000    0.000000   -2.510284
     20          1           0       -0.000000   -2.467500   -2.490084
     21          1           0       -0.000000   -4.609300   -1.272384
     22          1           0       -0.000000   -4.636800    1.211716
     23          1           0       -0.000000   -2.488100    2.443616
     24          1           0       -0.859600    0.000000    2.145816
     25          1           0        0.859600   -0.000000    2.145816
 ---------------------------------------------------------------------

 SCF Done:  E(RM062X) =  -539.815828650     A.U. after   14 cycles

 Excitation energies and oscillator strengths:

 Excited State   1:      Singlet-A1     2.8224 eV  439.28 nm  f=0.0277  <S**2>=0.000
      47 -> 48         0.70416
 This state for optimization and/or second-order correction.
 Total Energy, E(TD-HF/TD-DFT) =  -539.712106011
 Copying the excited state density for this state as the 1-particle RhoCI density.

 The electronic state is 1-A1.
 Alpha  occ. eigenvalues --  -10.77536 -10.73109 -10.73108 -10.72260 -10.72259
 Alpha  occ. eigenvalues --  -10.71235 -10.71235 -10.70915 -10.70915 -10.70840
 Alpha  occ. eigenvalues --  -10.69840 -10.69840 -10.69528 -10.69528  -1.16258
 Alpha  occ. eigenvalues --   -1.12288  -1.06777  -1.05575  -1.01159  -1.00035
 Alpha  occ. eigenvalues --   -0.95634  -0.90879  -0.86214  -0.85731  -0.83652
 Alpha  occ. eigenvalues --   -0.78239  -0.75784  -0.74199  -0.69350  -0.69078
 Alpha  occ. eigenvalues --   -0.68299  -0.68016  -0.67980  -0.64502  -0.64061
 Alpha  occ. eigenvalues --   -0.62819  -0.61661  -0.59945  -0.59665  -0.58896
 Alpha  occ. eigenvalues --   -0.56692  -0.54991  -0.54603  -0.52416  -0.46577
 Alpha  occ. eigenvalues --   -0.45999  -0.44440
 Alpha virt. eigenvalues --   -0.25961  -0.14402  -0.13958  -0.12487  -0.06851
 Alpha virt. eigenvalues --   -0.05511  -0.05364  -0.04073  -0.02676  -0.01624
 Alpha virt. eigenvalues --   -0.00206   0.00381   0.00577   0.01935   0.02305

 Mulliken charges:
               1
     1  C   -0.100022
     2  C   -0.030202
     3  C   -0.120383
     4  C   -0.062166
     5  C   -0.062166
     6  C   -0.120383
     7  C   -0.030202
     8  C   -0.100022
     9  C   -0.308872
    10  C   -0.066994
    11  C    0.103503
    12  C    0.055540
    13  C    0.103503
    14  C    0.055540
    15  H    0.136921
    16  H    0.147901
    17  H    0.142764
    18  H    0.131224
    19  H    0.160002
    20  H    0.131224
    21  H    0.142764
    22  H    0.147901
    23  H    0.136921
    24  H    0.202853
    25  H    0.202853
 Sum of Mulliken charges =   1.00000

 Dipole moment (field-independent basis, Debye):
    X=             -0.0000    Y=              0.0000    Z=             -0.1967  Tot=              0.1967
 Quadrupole moment (field-independent basis, Debye-Ang):
   XX=            -83.3717   YY=            -30.9548   ZZ=            -56.4100
   XY=              0.0000   XZ=              0.0000   YZ=             -0.0000

 Normal termination of Gaussian 16 at Mon Jul 25 20:48:55 2022.
