 Gaussian 16, Revision C.01,
 Gaussian 16:  ES64L-G16RevC.01  3-Jul-2019

 ---------------------------------------------------------
 #n M062X/cc-pvtz TD(NStates=1) EmpiricalDispersion=GD3 SP
 ---------------------------------------------------------

 -----
 SP_-5
 -----
 Symbolic Z-matrix:
 Charge =  1 Multiplicity = 1

                         Standard orientation:
 ---------------------------------------------------------------------
 Center     Atomic      Atomic             Coordinates (Angstroms)
 Number     Number       Type             X           Y           Z
 ---------------------------------------------------------------------
      1          6           0       -2.494419   -1.422396   -0.010011
      2          6           0       -3.702345   -0.697454   -0.084202
      3          6           0       -3.683006    0.743323   -0.082592
      4          6           0       -2.461427    1.470565   -0.006778
      5          6           0        2.464825    1.344619   -0.006918
      6          6           0        3.684729    0.684430   -0.082655
      7          6           0        3.700722   -0.646390   -0.084142
      8          6           0        2.491135   -1.298413   -0.009871
      9          6           0       -0.001754   -1.453499    0.074955
     10          6           0        0.001725    1.429097    0.078176
     11          6           0       -1.262934   -0.690566    0.065807
     12          6           0       -1.236605    0.742203    0.067408
     13          6           0        1.261300   -0.663613    0.065838
     14          6           0        1.238369    0.719215    0.067383
     15          1           0       -2.491223   -2.585600   -0.011311
     16          1           0       -4.638326   -1.260974   -0.129832
     17          1           0       -4.607700    1.328089   -0.126938
     18          1           0       -2.464330    2.628068   -0.005485
     19          1           0        0.003030    2.510190    0.084384
     20          1           0        2.470341    2.352112   -0.005792
     21          1           0        4.610772    1.216963   -0.127060
     22          1           0        4.635400   -1.162167   -0.129718
     23          1           0        2.485324   -2.301606   -0.010992
     24          1           0       -0.002590   -2.144938   -0.785419
     25          1           0       -0.002590   -2.146859    0.933780
 ---------------------------------------------------------------------

 SCF Done:  E(RM062X) =  -539.784312710     A.U. after   14 cycles

 Excitation energies and oscillator strengths:

 Excited State   1:      Singlet-A      2.7972 eV  443.25 nm  f=0.0321  <S**2>=0.000
      47 -> 48         0.70151
 This state for optimization and/or second-order correction.
 Total Energy, E(TD-HF/TD-DFT) =  -539.681518492
 Copying the excited state density for this state as the 1-particle RhoCI density.

 The electronic state is 1-A.
 Alpha  occ. eigenvalues --  -10.77505 -10.74339 -10.73097 -10.72800 -10.72530
 Alpha  occ. eigenvalues --  -10.71936 -10.71642 -10.71443 -10.70913 -10.70844
 Alpha  occ. eigenvalues --  -10.69645 -10.69300 -10.68147 -10.68011  -1.16375
 Alpha  occ. eigenvalues --   -1.12263  -1.06714  -1.05543  -1.01152  -1.00058
 Alpha  occ. eigenvalues --   -0.95582  -0.90835  -0.86523  -0.85634  -0.83469
 Alpha  occ. eigenvalues --   -0.78166  -0.76106  -0.73877  -0.69508  -0.69030
 Alpha  occ. eigenvalues --   -0.68348  -0.68009  -0.67907  -0.64346  -0.63844
 Alpha  occ. eigenvalues --   -0.62665  -0.61608  -0.60299  -0.59255  -0.58813
 Alpha  occ. eigenvalues --   -0.56663  -0.54916  -0.54521  -0.52404  -0.46492
 Alpha  occ. eigenvalues --   -0.46079  -0.44305
 Alpha virt. eigenvalues --   -0.25959  -0.14729  -0.13911  -0.12330  -0.06781
 Alpha virt. eigenvalues --   -0.05649  -0.05487  -0.04271  -0.02589  -0.01829
 Alpha virt. eigenvalues --   -0.00376   0.00193   0.00467   0.01744   0.02435

 Mulliken charges:
               1
     1  C   -0.099662
     2  C   -0.040255
     3  C   -0.120199
     4  C   -0.081617
     5  C   -0.056358
     6  C   -0.116495
     7  C   -0.016788
     8  C   -0.117694
     9  C   -0.307962
    10  C   -0.062567
    11  C    0.100126
    12  C    0.053831
    13  C    0.108952
    14  C    0.058287
    15  H    0.144080
    16  H    0.160033
    17  H    0.154867
    18  H    0.140538
    19  H    0.160080
    20  H    0.128099
    21  H    0.131033
    22  H    0.136391
    23  H    0.137715
    24  H    0.199924
    25  H    0.205641
 Sum of Mulliken charges =   1.00000

 Dipole moment (field-independent basis, Debye):
    X=             -0.5916    Y=              0.1849    Z=             -0.0836  Tot=              0.6254
 Quadrupole moment (field-independent basis, Debye-Ang):
   XX=            -30.9590   YY=            -56.2203   ZZ=            -83.3418
   XY=              0.3803   XZ=              0.0374   YZ=              0.1028

 Normal termination of Gaussian 16 at Mon Jul 25 20:02:23 2022.
