 Gaussian 16, Revision C.01,
 Gaussian 16:  ES64L-G16RevC.01  3-Jul-2019

 ---------------------------------------------------------
 #n M062X/cc-pvtz TD(NStates=1) EmpiricalDispersion=GD3 SP
 ---------------------------------------------------------

 -----
 SP_-1
 -----
 Symbolic Z-matrix:
 Charge =  1 Multiplicity = 1

                         Standard orientation:
 ---------------------------------------------------------------------
 Center     Atomic      Atomic             Coordinates (Angstroms)
 Number     Number       Type             X           Y           Z
 ---------------------------------------------------------------------
      1          6           0       -2.493031   -1.372814   -0.001991
      2          6           0       -3.701664   -0.677119   -0.016835
      3          6           0       -3.683726    0.719677   -0.016524
      4          6           0       -2.462857    1.420179   -0.001367
      5          6           0        2.463537    1.394990   -0.001373
      6          6           0        3.684071    0.707899   -0.016526
      7          6           0        3.701339   -0.666905   -0.016833
      8          6           0        2.492375   -1.348017   -0.001985
      9          6           0       -0.000351   -1.453419    0.014991
     10          6           0        0.000345    1.429181    0.015635
     11          6           0       -1.262264   -0.679714    0.013164
     12          6           0       -1.237323    0.733080    0.013479
     13          6           0        1.261937   -0.674323    0.013165
     14          6           0        1.237676    0.728483    0.013478
     15          1           0       -2.488697   -2.472015   -0.002236
     16          1           0       -4.637095   -1.221591   -0.025957
     17          1           0       -4.608990    1.283502   -0.025398
     18          1           0       -2.466893    2.517680   -0.001122
     19          1           0        0.000606    2.510280    0.016876
     20          1           0        2.468094    2.462489   -0.001135
     21          1           0        4.609604    1.261278   -0.025403
     22          1           0        4.636510   -1.201829   -0.025952
     23          1           0        2.487517   -2.415216   -0.002223
     24          1           0       -0.000518   -2.145627   -0.844763
     25          1           0       -0.000518   -2.146011    0.874437
 ---------------------------------------------------------------------

 SCF Done:  E(RM062X) =  -539.814579832     A.U. after   14 cycles

 Excitation energies and oscillator strengths:

 Excited State   1:      Singlet-A      2.8214 eV  439.44 nm  f=0.0279  <S**2>=0.000
      47 -> 48         0.70401
 This state for optimization and/or second-order correction.
 Total Energy, E(TD-HF/TD-DFT) =  -539.710894756
 Copying the excited state density for this state as the 1-particle RhoCI density.

 The electronic state is 1-A.
 Alpha  occ. eigenvalues --  -10.77535 -10.73351 -10.72868 -10.72426 -10.72094
 Alpha  occ. eigenvalues --  -10.71551 -10.71239 -10.70917 -10.70840 -10.70590
 Alpha  occ. eigenvalues --  -10.70204 -10.69805 -10.69475 -10.69250  -1.16263
 Alpha  occ. eigenvalues --   -1.12287  -1.06775  -1.05574  -1.01159  -1.00036
 Alpha  occ. eigenvalues --   -0.95632  -0.90877  -0.86227  -0.85727  -0.83644
 Alpha  occ. eigenvalues --   -0.78236  -0.75799  -0.74184  -0.69357  -0.69075
 Alpha  occ. eigenvalues --   -0.68301  -0.68016  -0.67978  -0.64496  -0.64052
 Alpha  occ. eigenvalues --   -0.62813  -0.61659  -0.59976  -0.59632  -0.58892
 Alpha  occ. eigenvalues --   -0.56691  -0.54988  -0.54600  -0.52415  -0.46573
 Alpha  occ. eigenvalues --   -0.46002  -0.44434
 Alpha virt. eigenvalues --   -0.25961  -0.14419  -0.13953  -0.12480  -0.06848
 Alpha virt. eigenvalues --   -0.05516  -0.05368  -0.04082  -0.02672  -0.01632
 Alpha virt. eigenvalues --   -0.00213   0.00372   0.00574   0.01922   0.02315

 Mulliken charges:
               1
     1  C   -0.098625
     2  C   -0.032658
     3  C   -0.120542
     4  C   -0.065361
     5  C   -0.059547
     6  C   -0.120056
     7  C   -0.027586
     8  C   -0.102169
     9  C   -0.308831
    10  C   -0.066808
    11  C    0.102510
    12  C    0.055195
    13  C    0.104606
    14  C    0.055934
    15  H    0.137877
    16  H    0.150345
    17  H    0.145237
    18  H    0.132731
    19  H    0.160005
    20  H    0.129968
    21  H    0.140303
    22  H    0.145481
    23  H    0.136290
    24  H    0.202267
    25  H    0.203434
 Sum of Mulliken charges =   1.00000

 Dipole moment (field-independent basis, Debye):
    X=             -0.1192    Y=              0.1963    Z=             -0.0167  Tot=              0.2302
 Quadrupole moment (field-independent basis, Debye-Ang):
   XX=            -30.9550   YY=            -56.4023   ZZ=            -83.3706
   XY=              0.0763   XZ=              0.0015   YZ=              0.0206

 Normal termination of Gaussian 16 at Mon Jul 25 20:43:02 2022.
