 Gaussian 16, Revision C.01,
 Gaussian 16:  ES64L-G16RevC.01  3-Jul-2019

 ---------------------------------------------------------
 #n M062X/cc-pvtz TD(NStates=1) EmpiricalDispersion=GD3 SP
 ---------------------------------------------------------

 -----
 SP_-2
 -----
 Symbolic Z-matrix:
 Charge =  1 Multiplicity = 1

                         Standard orientation:
 ---------------------------------------------------------------------
 Center     Atomic      Atomic             Coordinates (Angstroms)
 Number     Number       Type             X           Y           Z
 ---------------------------------------------------------------------
      1          6           0       -2.493369   -1.385211   -0.003987
      2          6           0       -3.701830   -0.682214   -0.033673
      3          6           0       -3.683550    0.725577   -0.033045
      4          6           0       -2.462509    1.432774   -0.002729
      5          6           0        2.463867    1.382397   -0.002751
      6          6           0        3.684239    0.702021   -0.033055
      7          6           0        3.701181   -0.661787   -0.033664
      8          6           0        2.492056   -1.335617   -0.003965
      9          6           0       -0.000701   -1.453429    0.029983
     10          6           0        0.000690    1.429170    0.031270
     11          6           0       -1.262430   -0.682418    0.026327
     12          6           0       -1.237145    0.735369    0.026960
     13          6           0        1.261776   -0.671637    0.026332
     14          6           0        1.237851    0.726175    0.026956
     15          1           0       -2.489307   -2.500413   -0.004485
     16          1           0       -4.637395   -1.231455   -0.051918
     17          1           0       -4.608676    1.294631   -0.050791
     18          1           0       -2.466272    2.545276   -0.002232
     19          1           0        0.001212    2.510269    0.033752
     20          1           0        2.468675    2.434894   -0.002281
     21          1           0        4.609904    1.250182   -0.050810
     22          1           0        4.636225   -1.191931   -0.051900
     23          1           0        2.486948   -2.386815   -0.004434
     24          1           0       -0.001036   -2.145445   -0.829926
     25          1           0       -0.001036   -2.146213    0.889274
 ---------------------------------------------------------------------

 SCF Done:  E(RM062X) =  -539.810826218     A.U. after   14 cycles

 Excitation energies and oscillator strengths:

 Excited State   1:      Singlet-A      2.8184 eV  439.92 nm  f=0.0284  <S**2>=0.000
      47 -> 48         0.70359
 This state for optimization and/or second-order correction.
 Total Energy, E(TD-HF/TD-DFT) =  -539.707253511
 Copying the excited state density for this state as the 1-particle RhoCI density.

 The electronic state is 1-A.
 Alpha  occ. eigenvalues --  -10.77531 -10.73596 -10.72630 -10.72594 -10.71929
 Alpha  occ. eigenvalues --  -10.71866 -10.71563 -10.70841 -10.70599 -10.70567
 Alpha  occ. eigenvalues --  -10.70266 -10.70083 -10.69109 -10.68973  -1.16277
 Alpha  occ. eigenvalues --   -1.12284  -1.06767  -1.05570  -1.01158  -1.00039
 Alpha  occ. eigenvalues --   -0.95626  -0.90871  -0.86266  -0.85715  -0.83620
 Alpha  occ. eigenvalues --   -0.78227  -0.75844  -0.74139  -0.69379  -0.69066
 Alpha  occ. eigenvalues --   -0.68309  -0.68015  -0.67969  -0.64478  -0.64025
 Alpha  occ. eigenvalues --   -0.62794  -0.61652  -0.60045  -0.59556  -0.58883
 Alpha  occ. eigenvalues --   -0.56688  -0.54979  -0.54590  -0.52414  -0.46563
 Alpha  occ. eigenvalues --   -0.46012  -0.44418
 Alpha virt. eigenvalues --   -0.25961  -0.14467  -0.13940  -0.12459  -0.06839
 Alpha virt. eigenvalues --   -0.05531  -0.05382  -0.04108  -0.02659  -0.01659
 Alpha virt. eigenvalues --   -0.00233   0.00348   0.00565   0.01888   0.02341

 Mulliken charges:
               1
     1  C   -0.097926
     2  C   -0.034915
     3  C   -0.120569
     4  C   -0.068998
     5  C   -0.057606
     6  C   -0.119522
     7  C   -0.024860
     8  C   -0.105069
     9  C   -0.308708
    10  C   -0.066255
    11  C    0.101655
    12  C    0.054870
    13  C    0.105777
    14  C    0.056401
    15  H    0.139096
    16  H    0.152796
    17  H    0.147703
    18  H    0.134435
    19  H    0.160013
    20  H    0.128999
    21  H    0.137877
    22  H    0.143103
    23  H    0.136021
    24  H    0.201678
    25  H    0.204005
 Sum of Mulliken charges =   1.00000

 Dipole moment (field-independent basis, Debye):
    X=             -0.2381    Y=              0.1948    Z=             -0.0334  Tot=              0.3095
 Quadrupole moment (field-independent basis, Debye-Ang):
   XX=            -30.9555   YY=            -56.3794   ZZ=            -83.3670
   XY=              0.1526   XZ=              0.0060   YZ=              0.0412

 Normal termination of Gaussian 16 at Mon Jul 25 20:32:55 2022.
