 Q-Chem 5.3 (devel), Q-Chem, Inc., Pleasanton, CA (2020)
 Q-Chem 5.3.2 for Intel X86 EM64T Linux

User input:
--------------------------------------------------------------
$molecule
1 1
  C   -0.0000000    2.4926549    1.3604310
  C   -0.0000000    3.7015080    0.6719886
  C   -0.0000000    3.6838611   -0.7138298
  C   -0.0000000    2.4631562   -1.4075381
  C   -0.0000000   -2.4631562   -1.4075381
  C   -0.0000000   -3.6838611   -0.7138298
  C   -0.0000000   -3.7015080    0.6719886
  C   -0.0000000   -2.4926549    1.3604310
  C    0.0000000   -0.0000000    1.4533694
  C    0.0000000    0.0000000   -1.4291887
  C   -0.0000000    1.2620555    0.6770653
  C   -0.0000000    1.2374709   -0.7308044
  C   -0.0000000   -1.2620555    0.6770653
  C   -0.0000000   -1.2374709   -0.7308044
  H   -0.0000000    2.4880712    2.4436473
  H   -0.0000000    4.6367530    1.2116887
  H   -0.0000000    4.6092621   -1.2723489
  H   -0.0000000    2.4675498   -2.4900588
  H    0.0000000    0.0000000   -2.5102663
  H   -0.0000000   -2.4675498   -2.4900588
  H   -0.0000000   -4.6092621   -1.2723489
  H   -0.0000000   -4.6367530    1.2116887
  H   -0.0000000   -2.4880712    2.4436473
  H   -0.8595855    0.0000000    2.1457874
  H    0.8595855   -0.0000000    2.1457874
$end

$rem
   BASIS  =  6-311++G(d,p)
   EXCHANGE  =  M06-2X
   CIS_N_ROOTS = 2
   CIS_TRIPLETS = FALSE
   MAKE_CUBE_FILES = TRUE
   PLOTS = TRUE
$end

$plots
 grid_range  (-8,8) (-8,8) (-8,8)
 grid_points 40 40 40
 total_density 0-2
 transition_density 1-2
$end

--------------------------------------------------------------

             Standard Nuclear Orientation (Angstroms)
    I     Atom           X                Y                Z
 ----------------------------------------------------------------
    1      C       2.4926549000     0.0000000000     1.3604309947
    2      C       3.7015080000     0.0000000000     0.6719885947
    3      C       3.6838611000    -0.0000000000    -0.7138298053
    4      C       2.4631562000    -0.0000000000    -1.4075381053
    5      C      -2.4631562000    -0.0000000000    -1.4075381053
    6      C      -3.6838611000    -0.0000000000    -0.7138298053
    7      C      -3.7015080000     0.0000000000     0.6719885947
    8      C      -2.4926549000     0.0000000000     1.3604309947
    9      C      -0.0000000000     0.0000000000     1.4533693947
   10      C       0.0000000000    -0.0000000000    -1.4291887053
   11      C       1.2620555000     0.0000000000     0.6770652947
   12      C       1.2374709000    -0.0000000000    -0.7308044053
   13      C      -1.2620555000     0.0000000000     0.6770652947
   14      C      -1.2374709000    -0.0000000000    -0.7308044053
   15      H       2.4880712000     0.0000000000     2.4436472947
   16      H       4.6367530000     0.0000000000     1.2116886947
   17      H       4.6092621000    -0.0000000000    -1.2723489053
   18      H       2.4675498000    -0.0000000000    -2.4900588053
   19      H       0.0000000000    -0.0000000000    -2.5102663053
   20      H      -2.4675498000    -0.0000000000    -2.4900588053
   21      H      -4.6092621000    -0.0000000000    -1.2723489053
   22      H      -4.6367530000     0.0000000000     1.2116886947
   23      H      -2.4880712000     0.0000000000     2.4436472947
   24      H       0.0000000000     0.8595855000     2.1457873947
   25      H      -0.0000000000    -0.8595855000     2.1457873947
 ----------------------------------------------------------------

   15    -539.7575850116      3.04e-09  Convergence criterion met
 Total energy in the final basis set =     -539.7575850116

         TDDFT/TDA Excitation Energies
 ---------------------------------------------------

 Excited state   1: excitation energy (eV) =    2.9687
 Total energy for state  1:                  -539.64848659 au
    Multiplicity: Singlet
    Trans. Mom.: -0.0000 X   0.0000 Y  -0.7815 Z
    Strength   :     0.0444172575
    D(   47) --> V(    1) amplitude =  0.9835

 Excited state   2: excitation energy (eV) =    3.3879
 Total energy for state  2:                  -539.63308286 au
    Multiplicity: Singlet
    Trans. Mom.: -0.0954 X  -0.0000 Y   0.0000 Z
    Strength   :     0.0007555341
    D(   45) --> V(    1) amplitude = -0.9170
    D(   46) --> V(    1) amplitude =  0.3604

 ---------------------------------------------------

             Orbital Energies (a.u.) and Symmetries
 --------------------------------------------------------------

 Alpha MOs, Restricted
 -- Occupied --
-10.777 -10.732 -10.732 -10.724 -10.724 -10.714 -10.714 -10.710
  1 A1    1 B1    2 A1    2 B1    3 A1    3 B1    4 A1    4 B1
-10.710 -10.710 -10.700 -10.700 -10.696 -10.696  -1.164  -1.125
  5 A1    6 A1    5 B1    7 A1    6 B1    8 A1    9 A1    7 B1
 -1.069  -1.057  -1.013  -1.002  -0.958  -0.911  -0.864  -0.859
 10 A1   11 A1    8 B1    9 B1   12 A1   13 A1   14 A1   10 B1
 -0.838  -0.784  -0.760  -0.744  -0.696  -0.692  -0.685  -0.682
 11 B1   15 A1   12 B1   16 A1   17 A1   13 B1   18 A1   14 B1
 -0.681  -0.647  -0.643  -0.631  -0.619  -0.600  -0.597  -0.591
  1 B2   15 B1   19 A1   16 B1   20 A1    2 B2    1 A2   21 A1
 -0.569  -0.552  -0.548  -0.524  -0.466  -0.461  -0.445
 17 B1   22 A1   18 B1    3 B2    2 A2    3 A2    4 B2

 Beta MOs, Restricted
 -- Occupied --
-10.777 -10.732 -10.732 -10.724 -10.724 -10.714 -10.714 -10.710
  1 A1    1 B1    2 A1    2 B1    3 A1    3 B1    4 A1    4 B1
-10.710 -10.710 -10.700 -10.700 -10.696 -10.696  -1.164  -1.125
  5 A1    6 A1    5 B1    7 A1    6 B1    8 A1    9 A1    7 B1
 -1.069  -1.057  -1.013  -1.002  -0.958  -0.911  -0.864  -0.859
 10 A1   11 A1    8 B1    9 B1   12 A1   13 A1   14 A1   10 B1
 -0.838  -0.784  -0.760  -0.744  -0.696  -0.692  -0.685  -0.682
 11 B1   15 A1   12 B1   16 A1   17 A1   13 B1   18 A1   14 B1
 -0.681  -0.647  -0.643  -0.631  -0.619  -0.600  -0.597  -0.591
  1 B2   15 B1   19 A1   16 B1   20 A1    2 B2    1 A2   21 A1
 -0.569  -0.552  -0.548  -0.524  -0.466  -0.461  -0.445
 17 B1   22 A1   18 B1    3 B2    2 A2    3 A2    4 B2

          Ground-State Mulliken Net Atomic Charges

     Atom                 Charge (a.u.)
  ----------------------------------------
      1 C                     0.093941
      2 C                    -0.406620
      3 C                    -0.440665
      4 C                     0.012377
      5 C                     0.012377
      6 C                    -0.440665
      7 C                    -0.406620
      8 C                     0.093941
      9 C                    -0.336355
     10 C                     0.093977
     11 C                    -0.637277
     12 C                     0.689279
     13 C                    -0.637277
     14 C                     0.689279
     15 H                     0.237646
     16 H                     0.255917
     17 H                     0.248496
     18 H                     0.222522
     19 H                     0.190411
     20 H                     0.222522
     21 H                     0.248496
     22 H                     0.255917
     23 H                     0.237646
     24 H                     0.250367
     25 H                     0.250367
  ----------------------------------------
  Sum of atomic charges =     1.000000

                    Cartesian Multipole Moments
 -----------------------------------------------------------------
    Charge (ESU x 10^10)
                 4.8032
    Dipole Moment (Debye)
         X      -0.0000      Y       0.0000      Z      -0.1863
       Tot       0.1863
    Quadrupole Moments (Debye-Ang)
        XX     -31.0997     XY       0.0000     YY     -84.1409
        XZ       0.0000     YZ       0.0000     ZZ     -56.2735

 Total job time:  75.92s(wall), 1534.94s(cpu)
        *  Thank you very much for using Q-Chem.  Have a nice day.  *
