============================== echo of input deck ==============================
echo

start molecule
memory stack 12000 mb heap 1000 mb global 6000 mb

title "Title"
charge 1

geometry units angstroms print xyz autosym
   C        3.66511       -0.78612       -0.00006
   C        2.45321       -1.43882       -0.00007
   C        1.24264       -0.69315       -0.00002
   C        1.27792        0.73302        0.00003
   C        2.51500        1.36722        0.00005
   C        3.69109        0.61879        0.00001
   C        0.00000       -1.35058        0.00003
   C        0.00000        1.51851        0.00005
   C       -1.27792        0.73302        0.00001
   C       -1.24264       -0.69315        0.00006
   C       -2.45321       -1.43882        0.00006
   H       -2.40689       -2.52195        0.00010
   C       -3.66511       -0.78612        0.00002
   C       -3.69109        0.61879       -0.00007
   C       -2.51500        1.36722       -0.00008
   H        0.00000       -2.43780        0.00003
   H        4.59227       -1.34508       -0.00010
   H        2.40689       -2.52195       -0.00013
   H        2.56929        2.45018        0.00009
   H        4.64555        1.13283        0.00003
   H       -0.00001        2.19342        0.86739
   H       -4.59227       -1.34508        0.00003
   H       -4.64555        1.13283       -0.00014
   H       -2.56929        2.45018       -0.00016
   H        0.00001        2.19350       -0.86725
end

basis
  * library 6-31+G
end

dft
  xc b3lyp
  mult 1
end

tddft
  cis
  nroots 3
  notriplet
  target 1
  civecs
  grad
    root 1
  end
end

task tddft optimize

================================================================================

         Total DFT energy =     -539.776414213984
  Root   1 singlet a1             0.108579685 a.u.                2.9546 eV
     Dipole Oscillator Strength                    0.0393401427
  Root   2 singlet b1             0.120587414 a.u.                3.2814 eV
     Dipole Oscillator Strength                    0.0031822995
  Root   3 singlet b1             0.137264125 a.u.                3.7351 eV
     Dipole Oscillator Strength                    0.8847430810
                         Root   1
@ Step       Energy      Delta E   Gmax     Grms     Xrms     Xmax   Walltime
@ ---- ---------------- -------- -------- -------- -------- -------- --------
@    0    -539.66783453  0.0D+00  0.03565  0.00646  0.00000  0.00000   2963.4
         Total DFT energy =     -539.770998589645
  Root   1 singlet a1             0.095365750 a.u.                2.5950 eV
     Dipole Oscillator Strength                    0.0335440284
  Root   2 singlet b1             0.107472552 a.u.                2.9245 eV
     Dipole Oscillator Strength                    0.0039391281
  Root   3 singlet b1             0.133978174 a.u.                3.6457 eV
     Dipole Oscillator Strength                    0.8214877102
         Total DFT energy =     -539.770998609519
  Root   1 singlet a1             0.095367687 a.u.                2.5951 eV
     Dipole Oscillator Strength                    0.0335435059
  Root   2 singlet b1             0.107474353 a.u.                2.9245 eV
     Dipole Oscillator Strength                    0.0039403277
  Root   3 singlet b1             0.133976888 a.u.                3.6457 eV
     Dipole Oscillator Strength                    0.8214735410
                         Root   1
@    1    -539.67563092 -7.8D-03  0.00260  0.00082  0.07007  0.16434   6490.6
         Total DFT energy =     -539.770905115802
  Root   1 singlet a1             0.094914539 a.u.                2.5828 eV
     Dipole Oscillator Strength                    0.0328377485
  Root   2 singlet b1             0.107051048 a.u.                2.9130 eV
     Dipole Oscillator Strength                    0.0038954478
  Root   3 singlet b1             0.133620291 a.u.                3.6360 eV
     Dipole Oscillator Strength                    0.8139967118
         Total DFT energy =     -539.770796967081
  Root   1 singlet a1             0.094786752 a.u.                2.5793 eV
     Dipole Oscillator Strength                    0.0326406068
  Root   2 singlet b1             0.106931377 a.u.                2.9098 eV
     Dipole Oscillator Strength                    0.0038774420
  Root   3 singlet b1             0.133517891 a.u.                3.6332 eV
     Dipole Oscillator Strength                    0.8119389462
                         Root   1
@    2    -539.67601021 -3.8D-04  0.00061  0.00019  0.01194  0.04318   9795.8
         Total DFT energy =     -539.770664248511
  Root   1 singlet a1             0.094635714 a.u.                2.5752 eV
     Dipole Oscillator Strength                    0.0325065253
  Root   2 singlet b1             0.106798483 a.u.                2.9061 eV
     Dipole Oscillator Strength                    0.0041227408
  Root   3 singlet b1             0.133606330 a.u.                3.6356 eV
     Dipole Oscillator Strength                    0.8120759532
         Total DFT energy =     -539.770644181957
  Root   1 singlet a1             0.094592337 a.u.                2.5740 eV
     Dipole Oscillator Strength                    0.0324773503
  Root   2 singlet b1             0.106757382 a.u.                2.9050 eV
     Dipole Oscillator Strength                    0.0041446523
  Root   3 singlet b1             0.133606264 a.u.                3.6356 eV
     Dipole Oscillator Strength                    0.8121473906
                         Root   1
@    3    -539.67605184 -4.2D-05  0.00029  0.00006  0.00256  0.00696  12943.4
         Total DFT energy =     -539.770635981986
  Root   1 singlet a1             0.094606306 a.u.                2.5744 eV
     Dipole Oscillator Strength                    0.0325490520
  Root   2 singlet b1             0.106775473 a.u.                2.9055 eV
     Dipole Oscillator Strength                    0.0040434798
  Root   3 singlet b1             0.133612043 a.u.                3.6358 eV
     Dipole Oscillator Strength                    0.8117050695
         Total DFT energy =     -539.770643897137

                       DFT Final Molecular Orbital Analysis
                       ------------------------------------

 Vector    1  Occ=2.000000D+00  E=-1.041864D+01  Symmetry=a1

 Vector  115  Occ=0.000000D+00  E= 2.124901D-01  Symmetry=b1

 Vector  116  Occ=0.000000D+00  E= 2.126571D-01  Symmetry=a1

 Vector  117  Occ=0.000000D+00  E= 2.178971D-01  Symmetry=b1

 Vector  118  Occ=0.000000D+00  E= 2.421581D-01  Symmetry=a1

 Vector  119  Occ=0.000000D+00  E= 2.554001D-01  Symmetry=b1

 Vector  120  Occ=0.000000D+00  E= 2.557700D-01  Symmetry=a1

 Vector  121  Occ=0.000000D+00  E= 2.693693D-01  Symmetry=b1

 Vector  122  Occ=0.000000D+00  E= 3.023038D-01  Symmetry=a1

 Vector  123  Occ=0.000000D+00  E= 3.160450D-01  Symmetry=b1

 Vector  124  Occ=0.000000D+00  E= 3.906067D-01  Symmetry=a1

 Vector  125  Occ=0.000000D+00  E= 4.214986D-01  Symmetry=b1

 Vector  126  Occ=0.000000D+00  E= 4.402930D-01  Symmetry=a1

 Vector  127  Occ=0.000000D+00  E= 4.587882D-01  Symmetry=b1

 Vector  128  Occ=0.000000D+00  E= 5.008497D-01  Symmetry=b2

 Vector  129  Occ=0.000000D+00  E= 5.279526D-01  Symmetry=a2

 Vector  130  Occ=0.000000D+00  E= 5.303512D-01  Symmetry=b1

 Vector  131  Occ=0.000000D+00  E= 5.421621D-01  Symmetry=b2

 Vector  132  Occ=0.000000D+00  E= 5.523700D-01  Symmetry=a1

 Vector  133  Occ=0.000000D+00  E= 5.668940D-01  Symmetry=a1

 Vector  134  Occ=0.000000D+00  E= 5.682446D-01  Symmetry=b2

 Vector  135  Occ=0.000000D+00  E= 5.764438D-01  Symmetry=b1

 Vector  136  Occ=0.000000D+00  E= 5.874366D-01  Symmetry=a1

 Vector  137  Occ=0.000000D+00  E= 5.890001D-01  Symmetry=b1

 Vector  138  Occ=0.000000D+00  E= 5.933476D-01  Symmetry=a2

 Vector  139  Occ=0.000000D+00  E= 5.993800D-01  Symmetry=a2

 Vector  140  Occ=0.000000D+00  E= 6.002509D-01  Symmetry=b1

 Vector  141  Occ=0.000000D+00  E= 6.006691D-01  Symmetry=a1

 Vector  142  Occ=0.000000D+00  E= 6.015737D-01  Symmetry=b2

 Vector  143  Occ=0.000000D+00  E= 6.033175D-01  Symmetry=b2

 Vector  144  Occ=0.000000D+00  E= 6.128110D-01  Symmetry=a1

 Vector  145  Occ=0.000000D+00  E= 6.344543D-01  Symmetry=b1

 Vector  146  Occ=0.000000D+00  E= 6.368530D-01  Symmetry=a2

 Vector  147  Occ=0.000000D+00  E= 6.436548D-01  Symmetry=b2

 Vector  148  Occ=0.000000D+00  E= 6.464978D-01  Symmetry=a2

 Vector  149  Occ=0.000000D+00  E= 6.504081D-01  Symmetry=a1

 Vector  150  Occ=0.000000D+00  E= 6.712623D-01  Symmetry=b2

 Vector  151  Occ=0.000000D+00  E= 6.726768D-01  Symmetry=a1

 Vector  152  Occ=0.000000D+00  E= 6.865881D-01  Symmetry=b1

 Vector  153  Occ=0.000000D+00  E= 7.016671D-01  Symmetry=a2

 Vector  154  Occ=0.000000D+00  E= 7.031193D-01  Symmetry=a1

 Vector  155  Occ=0.000000D+00  E= 7.558137D-01  Symmetry=b2

 Vector  156  Occ=0.000000D+00  E= 7.649028D-01  Symmetry=a1

 Vector  157  Occ=0.000000D+00  E= 7.727452D-01  Symmetry=b1

 Vector  158  Occ=0.000000D+00  E= 8.014234D-01  Symmetry=a1

 Vector  159  Occ=0.000000D+00  E= 8.254870D-01  Symmetry=a1

 Vector  160  Occ=0.000000D+00  E= 8.276594D-01  Symmetry=b1

 Vector  161  Occ=0.000000D+00  E= 8.375080D-01  Symmetry=b1

 Vector  162  Occ=0.000000D+00  E= 8.764692D-01  Symmetry=b1

 Vector  163  Occ=0.000000D+00  E= 8.772492D-01  Symmetry=a1

 Vector  164  Occ=0.000000D+00  E= 8.995953D-01  Symmetry=a1

 Vector  165  Occ=0.000000D+00  E= 9.228184D-01  Symmetry=b1

 Vector  166  Occ=0.000000D+00  E= 9.310922D-01  Symmetry=a1

 Vector  167  Occ=0.000000D+00  E= 9.416962D-01  Symmetry=b2

 Vector  168  Occ=0.000000D+00  E= 9.696863D-01  Symmetry=b1

 Vector  169  Occ=0.000000D+00  E= 9.830393D-01  Symmetry=b1

 Vector  170  Occ=0.000000D+00  E= 9.915584D-01  Symmetry=a1

 Vector  171  Occ=0.000000D+00  E= 1.017988D+00  Symmetry=a1

 Vector  172  Occ=0.000000D+00  E= 1.024041D+00  Symmetry=a1

 Vector  173  Occ=0.000000D+00  E= 1.040695D+00  Symmetry=b1

 Vector  174  Occ=0.000000D+00  E= 1.048360D+00  Symmetry=b1

 Vector  175  Occ=0.000000D+00  E= 1.051366D+00  Symmetry=a1

 Vector  176  Occ=0.000000D+00  E= 1.060294D+00  Symmetry=a1

 Vector  177  Occ=0.000000D+00  E= 1.079787D+00  Symmetry=b1

 Vector  178  Occ=0.000000D+00  E= 1.089521D+00  Symmetry=b1

 Vector  179  Occ=0.000000D+00  E= 1.092350D+00  Symmetry=a1

 Vector  180  Occ=0.000000D+00  E= 1.094183D+00  Symmetry=b1

 Vector  181  Occ=0.000000D+00  E= 1.117064D+00  Symmetry=a1

 Vector  182  Occ=0.000000D+00  E= 1.202827D+00  Symmetry=b1

 Vector  183  Occ=0.000000D+00  E= 1.223397D+00  Symmetry=a1

 Vector  184  Occ=0.000000D+00  E= 1.224417D+00  Symmetry=b1

 Vector  185  Occ=0.000000D+00  E= 1.264176D+00  Symmetry=a1

 Vector  186  Occ=0.000000D+00  E= 1.313344D+00  Symmetry=a1

 Vector  187  Occ=0.000000D+00  E= 1.352907D+00  Symmetry=b1

 Vector  188  Occ=0.000000D+00  E= 1.379034D+00  Symmetry=b1

 Vector  189  Occ=0.000000D+00  E= 1.384074D+00  Symmetry=a1

 Vector  190  Occ=0.000000D+00  E= 1.432477D+00  Symmetry=b1

 Vector  191  Occ=0.000000D+00  E= 1.489725D+00  Symmetry=a1

 Vector  192  Occ=0.000000D+00  E= 1.792692D+00  Symmetry=a1

 Vector  193  Occ=0.000000D+00  E= 1.794236D+00  Symmetry=b1

 Vector  194  Occ=0.000000D+00  E= 1.910285D+00  Symmetry=a1

  Root   1 singlet a1             0.094616803 a.u.                2.5747 eV
     Dipole Oscillator Strength                    0.0325071675
  Root   2 singlet b1             0.106778525 a.u.                2.9056 eV
     Dipole Oscillator Strength                    0.0041379961
  Root   3 singlet b1             0.133625320 a.u.                3.6361 eV
     Dipole Oscillator Strength                    0.8121451737

     Multipole analysis of the density
     ---------------------------------

     L   x y z        total
     -   - - -        -----
     0   0 0 0      1.000000

     1   1 0 0      0.000000
     1   0 1 0      0.000000
     1   0 0 1      0.217596

     2   2 0 0    -20.876071
     2   1 1 0      0.000000
     2   1 0 1      0.000000
     2   0 2 0    -62.745715
     2   0 1 1     -0.000000

                         Root   1
@    4    -539.67602709  2.5D-05  0.00025  0.00005  0.00002  0.00005  16005.3
@    4    -539.67602709  2.5D-05  0.00025  0.00005  0.00002  0.00005  16005.3

 Output coordinates in angstroms (scale by  1.889725989 to convert to a.u.)

  No.       Tag          Charge          X              Y              Z
 ---- ---------------- ---------- -------------- -------------- --------------
    1 C                    6.0000    -3.72230536     0.00000000    -0.73186434
    2 C                    6.0000    -2.48962981     0.00000000    -1.42601835
    3 C                    6.0000    -1.25298806     0.00000000    -0.73853109
    4 C                    6.0000    -1.27543135     0.00000000     0.67892767
    5 C                    6.0000    -2.52041298     0.00000000     1.36701843
    6 C                    6.0000    -3.73805269     0.00000000     0.66810120
    7 C                    6.0000     0.00000000     0.00000000    -1.44535570
    8 C                    6.0000     0.00000000     0.00000000     1.46630424
    9 C                    6.0000     1.27543135     0.00000000     0.67892767
   10 C                    6.0000     1.25298806     0.00000000    -0.73853109
   11 C                    6.0000     2.48962981     0.00000000    -1.42601835
   12 H                    1.0000     2.49134031     0.00000000    -2.51200283
   13 C                    6.0000     3.72230536     0.00000000    -0.73186434
   14 C                    6.0000     3.73805269     0.00000000     0.66810120
   15 C                    6.0000     2.52041298     0.00000000     1.36701843
   16 H                    1.0000     0.00000000     0.00000000    -2.52910016
   17 H                    1.0000    -4.65090301     0.00000000    -1.29139965
   18 H                    1.0000    -2.49134031     0.00000000    -2.51200283
   19 H                    1.0000    -2.52365822     0.00000000     2.45319726
   20 H                    1.0000    -4.67735465     0.00000000     1.20848704
   21 H                    1.0000     0.00000000     0.86867004     2.15361336
   22 H                    1.0000     4.65090301     0.00000000    -1.29139965
   23 H                    1.0000     4.67735465     0.00000000     1.20848704
   24 H                    1.0000     2.52365822     0.00000000     2.45319726
   25 H                    1.0000     0.00000000    -0.86867004     2.15361336

 Total times  cpu:    35102.2s     wall:    16005.3s
