============================== echo of input deck ==============================
echo

start molecule

title "Title"
charge 1

geometry units angstroms print xyz autosym
    C        0.000000    3.717380    0.691216
    C        0.000000    2.456935    1.385869
    C        0.000000    1.233897    0.713242
    C       -0.000000    1.267414   -0.674155
    C       -0.000000    2.538267   -1.371635
    C        0.000000    3.750912   -0.691246
    C       -0.000000   -0.050964    1.427248
    C       -0.000000    0.014437   -1.481799
    C        0.000000   -1.276108   -0.703076
    C       -0.000000   -1.259061    0.733202
    C       -0.000000   -2.508561    1.423492
    H       -0.000000   -2.504220    2.507368
    C        0.000000   -3.701473    0.731244
    C       -0.000000   -3.700179   -0.671493
    C       -0.000000   -2.489752   -1.373087
    H       -0.000000   -0.043871    2.509203
    H        0.000000    4.631455    1.272483
    H        0.000000    2.473257    2.470804
    H       -0.000000    2.524915   -2.456389
    H        0.000000    4.688708   -1.230523
    H       -0.866173    0.047317   -2.162831
    H       -0.000000   -4.640849    1.270377
    H       -0.000000   -4.636793   -1.215072
    H       -0.000000   -2.505604   -2.457932
    H        0.866173    0.047317   -2.162831
end

basis
  * library 6-31G
end

dft
  xc b3lyp
  mult 1
end

tddft
  cis
  nroots 5
  notriplet
  target 1
  maxiter 2000
end

task tddft energy
================================================================================

 Output coordinates in angstroms (scale by  1.889725989 to convert to a.u.)

  No.       Tag          Charge          X              Y              Z
 ---- ---------------- ---------- -------------- -------------- --------------
    1 C                    6.0000     0.73029609    -3.71109379     0.00000000
    2 C                    6.0000     1.41459682    -2.44499865     0.00000000
    3 C                    6.0000     0.73196999    -1.22751368     0.00000000
    4 C                    6.0000    -0.65510576    -1.27239883     0.00000000
    5 C                    6.0000    -1.34214811    -2.54892479     0.00000000
    6 C                    6.0000    -0.65184471    -3.75595350     0.00000000
    7 C                    6.0000     1.43542299     0.06315523     0.00000000
    8 C                    6.0000    -1.47299040    -0.02608229     0.00000000
    9 C                    6.0000    -0.70486915     1.27080076     0.00000000
   10 C                    6.0000     0.73150032     1.26552418     0.00000000
   11 C                    6.0000     1.41152788     2.52063893     0.00000000
   12 H                    1.0000     2.49540306     2.52518010     0.00000000
   13 C                    6.0000     0.70952759     3.70783813     0.00000000
   14 C                    6.0000    -0.69315171     3.69504918     0.00000000
   15 C                    6.0000    -1.38480308     2.47891348     0.00000000
   16 H                    1.0000     2.51739978     0.06492875     0.00000000
   17 H                    1.0000     1.31903413    -4.62037480     0.00000000
   18 H                    1.0000     2.49962914    -2.45242940     0.00000000
   19 H                    1.0000    -2.42697510    -2.54446246     0.00000000
   20 H                    1.0000    -1.18341866    -4.69813722     0.00000000
   21 H                    1.0000    -2.15373009    -0.06454203    -0.86617300
   22 H                    1.0000     1.24094460     4.65160061     0.00000000
   23 H                    1.0000    -1.24438771     4.62717728     0.00000000
   24 H                    1.0000    -2.46974156     2.48587499     0.00000000
   25 H                    1.0000    -2.15373009    -0.06454203     0.86617300

         Total DFT energy =     -539.754574292204

                       DFT Final Molecular Orbital Analysis
                       ------------------------------------

 Vector    1  Occ=2.000000D+00  E=-1.041132D+01  Symmetry=a'

 Vector   69  Occ=0.000000D+00  E= 1.389156D-01  Symmetry=a'

 Vector   70  Occ=0.000000D+00  E= 1.454056D-01  Symmetry=a'

 Vector   71  Occ=0.000000D+00  E= 1.557622D-01  Symmetry=a'

 Vector   72  Occ=0.000000D+00  E= 1.722213D-01  Symmetry=a'

 Vector   73  Occ=0.000000D+00  E= 1.781114D-01  Symmetry=a'

 Vector   74  Occ=0.000000D+00  E= 1.836166D-01  Symmetry=a'

 Vector   75  Occ=0.000000D+00  E= 2.093885D-01  Symmetry=a'

 Vector   76  Occ=0.000000D+00  E= 2.812075D-01  Symmetry=a'

 Vector   77  Occ=0.000000D+00  E= 3.031219D-01  Symmetry=a'

 Vector   78  Occ=0.000000D+00  E= 3.367454D-01  Symmetry=a'

 Vector   79  Occ=0.000000D+00  E= 3.424922D-01  Symmetry=a"

 Vector   80  Occ=0.000000D+00  E= 3.481144D-01  Symmetry=a'

 Vector   81  Occ=0.000000D+00  E= 3.733299D-01  Symmetry=a'

 Vector   82  Occ=0.000000D+00  E= 3.753270D-01  Symmetry=a"

 Vector   83  Occ=0.000000D+00  E= 3.813603D-01  Symmetry=a'

 Vector   84  Occ=0.000000D+00  E= 4.001503D-01  Symmetry=a'

 Vector   85  Occ=0.000000D+00  E= 4.049555D-01  Symmetry=a"

 Vector   86  Occ=0.000000D+00  E= 4.087617D-01  Symmetry=a'

 Vector   87  Occ=0.000000D+00  E= 4.273163D-01  Symmetry=a"

 Vector   88  Occ=0.000000D+00  E= 4.283799D-01  Symmetry=a'

 Vector   89  Occ=0.000000D+00  E= 4.398187D-01  Symmetry=a'

 Vector   90  Occ=0.000000D+00  E= 4.552741D-01  Symmetry=a'

 Vector   91  Occ=0.000000D+00  E= 4.606300D-01  Symmetry=a"

 Vector   92  Occ=0.000000D+00  E= 4.616976D-01  Symmetry=a'

 Vector   93  Occ=0.000000D+00  E= 4.704783D-01  Symmetry=a'

 Vector   94  Occ=0.000000D+00  E= 4.789101D-01  Symmetry=a"

 Vector   95  Occ=0.000000D+00  E= 4.903087D-01  Symmetry=a'

 Vector   96  Occ=0.000000D+00  E= 4.938214D-01  Symmetry=a"

 Vector   97  Occ=0.000000D+00  E= 5.019268D-01  Symmetry=a'

 Vector   98  Occ=0.000000D+00  E= 5.034655D-01  Symmetry=a'

 Vector   99  Occ=0.000000D+00  E= 5.118825D-01  Symmetry=a"

 Vector  100  Occ=0.000000D+00  E= 5.133848D-01  Symmetry=a'

 Vector  101  Occ=0.000000D+00  E= 5.223468D-01  Symmetry=a'

 Vector  102  Occ=0.000000D+00  E= 5.301958D-01  Symmetry=a'

 Vector  103  Occ=0.000000D+00  E= 5.326654D-01  Symmetry=a"

 Vector  104  Occ=0.000000D+00  E= 5.763021D-01  Symmetry=a"

 Vector  105  Occ=0.000000D+00  E= 5.802330D-01  Symmetry=a"

 Vector  106  Occ=0.000000D+00  E= 5.847345D-01  Symmetry=a'

 Vector  107  Occ=0.000000D+00  E= 6.050961D-01  Symmetry=a"

 Vector  108  Occ=0.000000D+00  E= 6.599349D-01  Symmetry=a"

 Vector  109  Occ=0.000000D+00  E= 6.698176D-01  Symmetry=a'

 Vector  110  Occ=0.000000D+00  E= 6.963937D-01  Symmetry=a'

 Vector  111  Occ=0.000000D+00  E= 7.043762D-01  Symmetry=a'

 Vector  112  Occ=0.000000D+00  E= 7.123445D-01  Symmetry=a"

 Vector  113  Occ=0.000000D+00  E= 7.183739D-01  Symmetry=a'

 Vector  114  Occ=0.000000D+00  E= 7.248951D-01  Symmetry=a'

 Vector  115  Occ=0.000000D+00  E= 7.340556D-01  Symmetry=a'

 Vector  116  Occ=0.000000D+00  E= 7.535193D-01  Symmetry=a'

 Vector  117  Occ=0.000000D+00  E= 7.773873D-01  Symmetry=a'

 Vector  118  Occ=0.000000D+00  E= 7.869233D-01  Symmetry=a'

 Vector  119  Occ=0.000000D+00  E= 7.954186D-01  Symmetry=a'

 Vector  120  Occ=0.000000D+00  E= 8.203811D-01  Symmetry=a'

 Vector  121  Occ=0.000000D+00  E= 8.275216D-01  Symmetry=a'

 Vector  122  Occ=0.000000D+00  E= 8.381217D-01  Symmetry=a'

 Vector  123  Occ=0.000000D+00  E= 8.482488D-01  Symmetry=a'

 Vector  124  Occ=0.000000D+00  E= 8.492072D-01  Symmetry=a"

 Vector  125  Occ=0.000000D+00  E= 8.751548D-01  Symmetry=a'

 Vector  126  Occ=0.000000D+00  E= 9.019983D-01  Symmetry=a'

 Vector  127  Occ=0.000000D+00  E= 9.072329D-01  Symmetry=a'

 Vector  128  Occ=0.000000D+00  E= 9.474344D-01  Symmetry=a'

 Vector  129  Occ=0.000000D+00  E= 9.666040D-01  Symmetry=a'

 Vector  130  Occ=0.000000D+00  E= 9.721995D-01  Symmetry=a'

 Vector  131  Occ=0.000000D+00  E= 1.010505D+00  Symmetry=a'

 Vector  132  Occ=0.000000D+00  E= 1.015771D+00  Symmetry=a'

 Vector  133  Occ=0.000000D+00  E= 1.048942D+00  Symmetry=a'

 Vector  134  Occ=0.000000D+00  E= 1.051424D+00  Symmetry=a'

 Vector  135  Occ=0.000000D+00  E= 1.069885D+00  Symmetry=a'

 Vector  136  Occ=0.000000D+00  E= 1.102232D+00  Symmetry=a'

 Vector  137  Occ=0.000000D+00  E= 1.117489D+00  Symmetry=a'

 Vector  138  Occ=0.000000D+00  E= 1.159274D+00  Symmetry=a'

 Vector  139  Occ=0.000000D+00  E= 1.217810D+00  Symmetry=a'

 Vector  140  Occ=0.000000D+00  E= 1.312245D+00  Symmetry=a'

 Vector  141  Occ=0.000000D+00  E= 1.340362D+00  Symmetry=a'

 Vector  142  Occ=0.000000D+00  E= 1.357714D+00  Symmetry=a'

 Vector  143  Occ=0.000000D+00  E= 1.361594D+00  Symmetry=a'

 Vector  144  Occ=0.000000D+00  E= 1.383989D+00  Symmetry=a'

 Vector  145  Occ=0.000000D+00  E= 1.450569D+00  Symmetry=a'

 Vector  146  Occ=0.000000D+00  E= 1.783007D+00  Symmetry=a'

 Vector  147  Occ=0.000000D+00  E= 1.788806D+00  Symmetry=a'

 Vector  148  Occ=0.000000D+00  E= 1.871742D+00  Symmetry=a'

     Multipole analysis of the density
     ---------------------------------

     L   x y z        total         alpha         beta         nuclear
     -   - - -        -----         -----         ----         -------
     0   0 0 0      1.000000    -47.000000    -47.000000     95.000000

     1   1 0 0      0.055101      0.027550      0.027550     -0.000000
     1   0 1 0      0.425363      0.212682      0.212682     -0.000000
     1   0 0 1      0.000000      0.000000      0.000000      0.000000

     2   2 0 0    -42.163936   -273.910197   -273.910197    505.656458
     2   1 1 0      0.144425     -0.042144     -0.042144      0.228713
     2   1 0 1      0.000000      0.000000      0.000000      0.000000
     2   0 2 0    -23.034088  -1138.428306  -1138.428306   2253.822524
     2   0 1 1     -0.000000     -0.000000     -0.000000      0.000000

  Root   1 singlet a'             0.086456452 a.u.                2.3526 eV
     Dipole Oscillator Strength                    0.0185452800
  Root   2 singlet a'             0.116079078 a.u.                3.1587 eV
     Dipole Oscillator Strength                    0.0196381090
  Root   3 singlet a'             0.134670648 a.u.                3.6646 eV
     Dipole Oscillator Strength                    0.7578126002
  Root   4 singlet a"             0.168625799 a.u.                4.5885 eV
     Dipole Oscillator Strength                    0.0000817085
  Root   5 singlet a'             0.178658213 a.u.                4.8615 eV
     Dipole Oscillator Strength                    0.0792455534
 Total times  cpu:      629.0s     wall:      655.7s
