 Output coordinates in angstroms (scale by  1.889725989 to convert to a.u.)

  No.       Tag          Charge          X              Y              Z
 ---- ---------------- ---------- -------------- -------------- --------------
    1 C                    6.0000    -3.70605500     0.00000000     0.71774845
    2 C                    6.0000    -2.48018600     0.00000000     1.41216345
    3 C                    6.0000    -1.24690300     0.00000000     0.73262445
    4 C                    6.0000    -1.27115500     0.00000000    -0.67944855
    5 C                    6.0000    -2.50918700     0.00000000    -1.36538555
    6 C                    6.0000    -3.72232200     0.00000000    -0.67376555
    7 C                    6.0000     0.00000000     0.00000000     1.43507045
    8 C                    6.0000     0.00000000     0.00000000    -1.46153655
    9 C                    6.0000     1.27115500     0.00000000    -0.67944855
   10 C                    6.0000     1.24690300     0.00000000     0.73262445
   11 C                    6.0000     2.48018600     0.00000000     1.41216345
   12 H                    1.0000     2.48659600     0.00000000     2.49673045
   13 C                    6.0000     3.70605500     0.00000000     0.71774845
   14 C                    6.0000     3.72232200     0.00000000    -0.67376555
   15 C                    6.0000     2.50918700     0.00000000    -1.36538555
   16 H                    1.0000     0.00000000     0.00000000     2.51701745
   17 H                    1.0000    -4.63365300     0.00000000     1.27711645
   18 H                    1.0000    -2.48659600     0.00000000     2.49673045
   19 H                    1.0000    -2.50953300     0.00000000    -2.45031155
   20 H                    1.0000    -4.65956800     0.00000000    -1.21508655
   21 H                    1.0000     0.00000000    -0.86317100    -2.15117955
   22 H                    1.0000     4.63365300     0.00000000     1.27711645
   23 H                    1.0000     4.65956800     0.00000000    -1.21508655
   24 H                    1.0000     2.50953300     0.00000000    -2.45031155
   25 H                    1.0000     0.00000000     0.86317100    -2.15117955

         Total DFT energy =     -539.760519182892

                       DFT Final Molecular Orbital Analysis
                       ------------------------------------

 Vector    1  Occ=2.000000D+00  E=-1.041193D+01  Symmetry=a1

 Vector   69  Occ=0.000000D+00  E= 1.411848D-01  Symmetry=b1

 Vector   70  Occ=0.000000D+00  E= 1.440234D-01  Symmetry=a1

 Vector   71  Occ=0.000000D+00  E= 1.537414D-01  Symmetry=b1

 Vector   72  Occ=0.000000D+00  E= 1.741860D-01  Symmetry=b1

 Vector   73  Occ=0.000000D+00  E= 1.777203D-01  Symmetry=a1

 Vector   74  Occ=0.000000D+00  E= 1.827716D-01  Symmetry=b1

 Vector   75  Occ=0.000000D+00  E= 2.099536D-01  Symmetry=a1

 Vector   76  Occ=0.000000D+00  E= 2.855132D-01  Symmetry=a1

 Vector   77  Occ=0.000000D+00  E= 3.005390D-01  Symmetry=b1

 Vector   78  Occ=0.000000D+00  E= 3.396228D-01  Symmetry=a1

 Vector   79  Occ=0.000000D+00  E= 3.433827D-01  Symmetry=b2

 Vector   80  Occ=0.000000D+00  E= 3.481340D-01  Symmetry=b1

 Vector   81  Occ=0.000000D+00  E= 3.740479D-01  Symmetry=a1

 Vector   82  Occ=0.000000D+00  E= 3.752019D-01  Symmetry=a2

 Vector   83  Occ=0.000000D+00  E= 3.836304D-01  Symmetry=b1

 Vector   84  Occ=0.000000D+00  E= 4.002348D-01  Symmetry=a1

 Vector   85  Occ=0.000000D+00  E= 4.043369D-01  Symmetry=b2

 Vector   86  Occ=0.000000D+00  E= 4.107227D-01  Symmetry=b1

 Vector   87  Occ=0.000000D+00  E= 4.290714D-01  Symmetry=b2

 Vector   88  Occ=0.000000D+00  E= 4.292178D-01  Symmetry=a1

 Vector   89  Occ=0.000000D+00  E= 4.375099D-01  Symmetry=b1

 Vector   90  Occ=0.000000D+00  E= 4.567781D-01  Symmetry=a1

 Vector   91  Occ=0.000000D+00  E= 4.593887D-01  Symmetry=a2

 Vector   92  Occ=0.000000D+00  E= 4.600311D-01  Symmetry=b1

 Vector   93  Occ=0.000000D+00  E= 4.701564D-01  Symmetry=a1

 Vector   94  Occ=0.000000D+00  E= 4.794298D-01  Symmetry=a2

 Vector   95  Occ=0.000000D+00  E= 4.932748D-01  Symmetry=b2

 Vector   96  Occ=0.000000D+00  E= 4.949933D-01  Symmetry=b1

 Vector   97  Occ=0.000000D+00  E= 5.025159D-01  Symmetry=a1

 Vector   98  Occ=0.000000D+00  E= 5.067462D-01  Symmetry=a1

 Vector   99  Occ=0.000000D+00  E= 5.074371D-01  Symmetry=b1

 Vector  100  Occ=0.000000D+00  E= 5.125550D-01  Symmetry=b2

 Vector  101  Occ=0.000000D+00  E= 5.155499D-01  Symmetry=b1

 Vector  102  Occ=0.000000D+00  E= 5.281465D-01  Symmetry=a1

 Vector  103  Occ=0.000000D+00  E= 5.322164D-01  Symmetry=a2

 Vector  104  Occ=0.000000D+00  E= 5.774693D-01  Symmetry=b2

 Vector  105  Occ=0.000000D+00  E= 5.788470D-01  Symmetry=a2

 Vector  106  Occ=0.000000D+00  E= 5.858676D-01  Symmetry=a1

 Vector  107  Occ=0.000000D+00  E= 6.061905D-01  Symmetry=b2

 Vector  108  Occ=0.000000D+00  E= 6.592444D-01  Symmetry=a2

 Vector  109  Occ=0.000000D+00  E= 6.703613D-01  Symmetry=a1

 Vector  110  Occ=0.000000D+00  E= 6.984905D-01  Symmetry=b1

 Vector  111  Occ=0.000000D+00  E= 7.004294D-01  Symmetry=a1

 Vector  112  Occ=0.000000D+00  E= 7.107132D-01  Symmetry=b2

 Vector  113  Occ=0.000000D+00  E= 7.198075D-01  Symmetry=b1

 Vector  114  Occ=0.000000D+00  E= 7.226149D-01  Symmetry=a1

 Vector  115  Occ=0.000000D+00  E= 7.347211D-01  Symmetry=b1

 Vector  116  Occ=0.000000D+00  E= 7.518649D-01  Symmetry=a1

 Vector  117  Occ=0.000000D+00  E= 7.788517D-01  Symmetry=b1

 Vector  118  Occ=0.000000D+00  E= 7.873307D-01  Symmetry=b1

 Vector  119  Occ=0.000000D+00  E= 7.964086D-01  Symmetry=a1

 Vector  120  Occ=0.000000D+00  E= 8.226542D-01  Symmetry=b1

 Vector  121  Occ=0.000000D+00  E= 8.265432D-01  Symmetry=a1

 Vector  122  Occ=0.000000D+00  E= 8.375207D-01  Symmetry=a1

 Vector  123  Occ=0.000000D+00  E= 8.462224D-01  Symmetry=b2

 Vector  124  Occ=0.000000D+00  E= 8.470387D-01  Symmetry=a1

 Vector  125  Occ=0.000000D+00  E= 8.756244D-01  Symmetry=b1

 Vector  126  Occ=0.000000D+00  E= 9.009888D-01  Symmetry=a1

 Vector  127  Occ=0.000000D+00  E= 9.079841D-01  Symmetry=b1

 Vector  128  Occ=0.000000D+00  E= 9.484305D-01  Symmetry=b1

 Vector  129  Occ=0.000000D+00  E= 9.650592D-01  Symmetry=b1

 Vector  130  Occ=0.000000D+00  E= 9.742054D-01  Symmetry=a1

 Vector  131  Occ=0.000000D+00  E= 1.010959D+00  Symmetry=a1

 Vector  132  Occ=0.000000D+00  E= 1.015624D+00  Symmetry=a1

 Vector  133  Occ=0.000000D+00  E= 1.048944D+00  Symmetry=b1

 Vector  134  Occ=0.000000D+00  E= 1.050684D+00  Symmetry=a1

 Vector  135  Occ=0.000000D+00  E= 1.069598D+00  Symmetry=b1

 Vector  136  Occ=0.000000D+00  E= 1.102297D+00  Symmetry=b1

 Vector  137  Occ=0.000000D+00  E= 1.119069D+00  Symmetry=a1

 Vector  138  Occ=0.000000D+00  E= 1.159669D+00  Symmetry=b1

 Vector  139  Occ=0.000000D+00  E= 1.217502D+00  Symmetry=a1

 Vector  140  Occ=0.000000D+00  E= 1.314392D+00  Symmetry=a1

 Vector  141  Occ=0.000000D+00  E= 1.349598D+00  Symmetry=b1

 Vector  142  Occ=0.000000D+00  E= 1.354752D+00  Symmetry=a1

 Vector  143  Occ=0.000000D+00  E= 1.359856D+00  Symmetry=b1

 Vector  144  Occ=0.000000D+00  E= 1.385461D+00  Symmetry=b1

 Vector  145  Occ=0.000000D+00  E= 1.450362D+00  Symmetry=a1

 Vector  146  Occ=0.000000D+00  E= 1.788363D+00  Symmetry=b1

 Vector  147  Occ=0.000000D+00  E= 1.788826D+00  Symmetry=a1

 Vector  148  Occ=0.000000D+00  E= 1.874052D+00  Symmetry=a1

     Multipole analysis of the density
     ---------------------------------

     L   x y z        total         alpha         beta         nuclear
     -   - - -        -----         -----         ----         -------
     0   0 0 0      1.000000    -47.000000    -47.000000     95.000000

     1   1 0 0      0.000000      0.000000      0.000000      0.000000
     1   0 1 0     -0.000000     -0.000000     -0.000000      0.000000
     1   0 0 1      0.057558      0.028779      0.028779      0.000000

     2   2 0 0    -23.179081  -1136.167840  -1136.167840   2249.156599
     2   1 1 0     -0.000000     -0.000000     -0.000000      0.000000
     2   1 0 1      0.000000      0.000000      0.000000     -0.000000
     2   0 2 0    -61.209533    -33.265438    -33.265438      5.321344
     2   0 1 1     -0.000000     -0.000000     -0.000000      0.000000

  Root   1 singlet a1             0.095552266 a.u.                2.6001 eV
     Dipole Oscillator Strength                    0.0343501707
  Root   2 singlet b1             0.107847372 a.u.                2.9347 eV
     Dipole Oscillator Strength                    0.0040586290
  Root   3 singlet b1             0.136408684 a.u.                3.7119 eV
     Dipole Oscillator Strength                    0.8060369724
  Root   4 singlet a2             0.173041665 a.u.                4.7087 eV
     Dipole Oscillator Strength                    0.0000000000
  Root   5 singlet a1             0.178350022 a.u.                4.8532 eV
     Dipole Oscillator Strength                    0.0253072061
 Total times  cpu:      637.8s     wall:      660.4s
