 Gaussian 16, Revision C.01,
 Gaussian 16:  ES64L-G16RevC.01  3-Jul-2019

 ----------------------------------------------
 #n M062X/6-311++G(d,p) TD SP pop=reg formcheck
 ----------------------------------------------

 -----
 SP_-9
 -----
 Symbolic Z-matrix:
 Charge =  1 Multiplicity = 1

                         Standard orientation:
 ---------------------------------------------------------------------
 Center     Atomic      Atomic             Coordinates (Angstroms)
 Number     Number       Type             X           Y           Z
 ---------------------------------------------------------------------
      1          6           0        2.475103   -1.376879    0.000000
      2          6           0        3.689089   -0.685535    0.000000
      3          6           0        3.687138    0.711784    0.000000
      4          6           0        2.496605    1.405823    0.000000
      5          6           0       -2.441227    1.416264    0.000000
      6          6           0       -3.697737    0.719576    0.000000
      7          6           0       -3.730619   -0.661035    0.000000
      8          6           0       -2.521349   -1.351174    0.000000
      9          6           0       -0.014793   -1.457305    0.000000
     10          6           0        0.036851    1.432936    0.000000
     11          6           0        1.271078   -0.696842    0.000000
     12          6           0        1.252143    0.727546    0.000000
     13          6           0       -1.257916   -0.660840    0.000000
     14          6           0       -1.229057    0.736524    0.000000
     15          1           0        2.477511   -2.461959    0.000000
     16          1           0        4.624170   -1.231758    0.000000
     17          1           0        4.624997    1.252898    0.000000
     18          1           0        2.496879    2.489830    0.000000
     19          1           0        0.038256    2.515891    0.000000
     20          1           0       -2.450308    2.501428    0.000000
     21          1           0       -4.614431    1.297420    0.000000
     22          1           0       -4.669775   -1.196369    0.000000
     23          1           0       -2.512465   -2.436750    0.000000
     24          1           0       -0.053296   -2.147852    0.863493
     25          1           0       -0.053389   -2.147852   -0.863493
 ---------------------------------------------------------------------

 SCF Done:  E(RM062X) =  -539.755424274     A.U. after   15 cycles

 Excitation energies and oscillator strengths:

 Excited State   1:      Singlet-A      2.7137 eV  456.89 nm  f=0.0220  <S**2>=0.000
      47 -> 48         0.70357
 This state for optimization and/or second-order correction.
 Total Energy, E(TD-HF/TD-DFT) =  -539.655698766
 Copying the excited state density for this state as the 1-particle RhoCI density.

 Excited State   2:      Singlet-A      3.3364 eV  371.61 nm  f=0.0207  <S**2>=0.000
      45 -> 48         0.64073
      46 -> 48         0.28493

 Excited State   3:      Singlet-A      3.4746 eV  356.83 nm  f=0.5418  <S**2>=0.000
      45 -> 48        -0.28772
      46 -> 48         0.63660

 The electronic state is 1-A.
 Alpha  occ. eigenvalues --  -10.77718 -10.73730 -10.72936 -10.72861 -10.72196
 Alpha  occ. eigenvalues --  -10.71916 -10.71814 -10.71092 -10.71072 -10.70336
 Alpha  occ. eigenvalues --  -10.70253 -10.69934 -10.69906 -10.69523  -1.16281
 Alpha  occ. eigenvalues --   -1.12272  -1.06763  -1.05649  -1.01165  -1.00188
 Alpha  occ. eigenvalues --   -0.95569  -0.90938  -0.86303  -0.85771  -0.83729
 Alpha  occ. eigenvalues --   -0.78292  -0.75932  -0.74259  -0.69651  -0.69171
 Alpha  occ. eigenvalues --   -0.68331  -0.68019  -0.67990  -0.64973  -0.64181
 Alpha  occ. eigenvalues --   -0.62761  -0.61683  -0.60184  -0.59280  -0.59137
 Alpha  occ. eigenvalues --   -0.56848  -0.55358  -0.54499  -0.52332  -0.46965
 Alpha  occ. eigenvalues --   -0.46039  -0.44027
 Alpha virt. eigenvalues --   -0.26116  -0.14722  -0.14116  -0.12831  -0.11174
 Alpha virt. eigenvalues --   -0.10088  -0.09246  -0.07983  -0.07972  -0.07485
 Alpha virt. eigenvalues --   -0.07201  -0.07155  -0.05659  -0.05588  -0.05364

 Mulliken charges:
               1
     1  C    0.075146
     2  C   -0.399035
     3  C   -0.432674
     4  C    0.027365
     5  C   -0.010610
     6  C   -0.444801
     7  C   -0.407176
     8  C    0.101009
     9  C   -0.341052
    10  C    0.082838
    11  C   -0.635836
    12  C    0.698318
    13  C   -0.617264
    14  C    0.677177
    15  H    0.239752
    16  H    0.260990
    17  H    0.251810
    18  H    0.225190
    19  H    0.191045
    20  H    0.220817
    21  H    0.247514
    22  H    0.253261
    23  H    0.236992
    24  H    0.249613
    25  H    0.249611
 Sum of Mulliken charges =   1.00000

 Dipole moment (field-independent basis, Debye):
    X=              0.8133    Y=              0.1834    Z=              0.0000  Tot=              0.8337
 Quadrupole moment (field-independent basis, Debye-Ang):
   XX=            -30.8183   YY=            -56.1876   ZZ=            -84.2695
   XY=              0.0670   XZ=              0.0001   YZ=             -0.0000

 Normal termination of Gaussian 16 at Thu Jul 14 15:44:10 2022.
