 Gaussian 16, Revision C.01,
 Gaussian 16:  ES64L-G16RevC.01  3-Jul-2019

 ----------------------------------------------
 #n M062X/6-311++G(d,p) TD SP pop=reg formcheck
 ----------------------------------------------

 -----
 SP_-8
 -----
 Symbolic Z-matrix:
 Charge =  1 Multiplicity = 1

                         Standard orientation:
 ---------------------------------------------------------------------
 Center     Atomic      Atomic             Coordinates (Angstroms)
 Number     Number       Type             X           Y           Z
 ---------------------------------------------------------------------
      1          6           0        2.477705   -1.375472    0.000000
      2          6           0        3.691409   -0.684216    0.000000
      3          6           0        3.687731    0.712224    0.000000
      4          6           0        2.493528    1.406440    0.000000
      5          6           0       -2.444302    1.415721    0.000000
      6          6           0       -3.697152    0.719151    0.000000
      7          6           0       -3.728325   -0.662437    0.000000
      8          6           0       -2.518813   -1.352624    0.000000
      9          6           0       -0.013150   -1.457389    0.000000
     10          6           0        0.032757    1.432983    0.000000
     11          6           0        1.270368   -0.694817    0.000000
     12          6           0        1.250856    0.728060    0.000000
     13          6           0       -1.258668   -0.662815    0.000000
     14          6           0       -1.230335    0.736041    0.000000
     15          1           0        2.479460   -2.460576    0.000000
     16          1           0        4.626725   -1.229825    0.000000
     17          1           0        4.624432    1.255383    0.000000
     18          1           0        2.494291    2.490513    0.000000
     19          1           0        0.034005    2.515946    0.000000
     20          1           0       -2.452894    2.500823    0.000000
     21          1           0       -4.615040    1.294959    0.000000
     22          1           0       -4.667263   -1.198367    0.000000
     23          1           0       -2.510530   -2.438168    0.000000
     24          1           0       -0.047375   -2.147894    0.863524
     25          1           0       -0.047457   -2.147894   -0.863524
 ---------------------------------------------------------------------

 SCF Done:  E(RM062X) =  -539.756179242     A.U. after   15 cycles

 Excitation energies and oscillator strengths:

 Excited State   1:      Singlet-A      2.7313 eV  453.94 nm  f=0.0228  <S**2>=0.000
      47 -> 48         0.70364
 This state for optimization and/or second-order correction.
 Total Energy, E(TD-HF/TD-DFT) =  -539.655805433
 Copying the excited state density for this state as the 1-particle RhoCI density.

 Excited State   2:      Singlet-A      3.3197 eV  373.48 nm  f=0.0156  <S**2>=0.000
      45 -> 48         0.64348
      46 -> 48         0.27906

 Excited State   3:      Singlet-A      3.4730 eV  356.99 nm  f=0.5467  <S**2>=0.000
      45 -> 48        -0.28168
      46 -> 48         0.63927

 The electronic state is 1-A.
 Alpha  occ. eigenvalues --  -10.77730 -10.73689 -10.72982 -10.72830 -10.72238
 Alpha  occ. eigenvalues --  -10.71824 -10.71779 -10.71136 -10.71072 -10.70419
 Alpha  occ. eigenvalues --  -10.70234 -10.69925 -10.69913 -10.69547  -1.16269
 Alpha  occ. eigenvalues --   -1.12270  -1.06764  -1.05633  -1.01167  -1.00162
 Alpha  occ. eigenvalues --   -0.95591  -0.90939  -0.86300  -0.85774  -0.83731
 Alpha  occ. eigenvalues --   -0.78301  -0.75917  -0.74265  -0.69618  -0.69172
 Alpha  occ. eigenvalues --   -0.68350  -0.68035  -0.67992  -0.64916  -0.64187
 Alpha  occ. eigenvalues --   -0.62798  -0.61705  -0.60141  -0.59319  -0.59120
 Alpha  occ. eigenvalues --   -0.56853  -0.55335  -0.54550  -0.52332  -0.46886
 Alpha  occ. eigenvalues --   -0.46033  -0.44106
 Alpha virt. eigenvalues --   -0.26113  -0.14719  -0.14123  -0.12834  -0.11173
 Alpha virt. eigenvalues --   -0.10087  -0.09242  -0.07990  -0.07974  -0.07484
 Alpha virt. eigenvalues --   -0.07200  -0.07156  -0.05658  -0.05589  -0.05362

 Mulliken charges:
               1
     1  C    0.076564
     2  C   -0.399562
     3  C   -0.433304
     4  C    0.025350
     5  C   -0.008484
     6  C   -0.444074
     7  C   -0.406821
     8  C    0.099572
     9  C   -0.340553
    10  C    0.083296
    11  C   -0.635465
    12  C    0.697509
    13  C   -0.619136
    14  C    0.678554
    15  H    0.239594
    16  H    0.260553
    17  H    0.251580
    18  H    0.224941
    19  H    0.191137
    20  H    0.221045
    21  H    0.247759
    22  H    0.253678
    23  H    0.237134
    24  H    0.249567
    25  H    0.249566
 Sum of Mulliken charges =   1.00000

 Dipole moment (field-independent basis, Debye):
    X=              0.7234    Y=              0.1866    Z=              0.0000  Tot=              0.7471
 Quadrupole moment (field-independent basis, Debye-Ang):
   XX=            -30.8333   YY=            -56.1853   ZZ=            -84.2712
   XY=              0.0597   XZ=              0.0001   YZ=             -0.0000

 Normal termination of Gaussian 16 at Thu Jul 14 16:11:22 2022.
