 Gaussian 16, Revision C.01,
 Gaussian 16:  ES64L-G16RevC.01  3-Jul-2019

 ---------------------------------------------------------------
 #n M062X/6-311++G(d,p) TD(NStates=1) EmpiricalDispersion=GD3 SP
 ---------------------------------------------------------------

 ----
 SP_0
 ----
 Symbolic Z-matrix:
 Charge =  1 Multiplicity = 1

                         Standard orientation:
 ---------------------------------------------------------------------
 Center     Atomic      Atomic             Coordinates (Angstroms)
 Number     Number       Type             X           Y           Z
 ---------------------------------------------------------------------
      1          6           0       -2.360159   -1.544422    0.000000
      2          6           0       -2.306177   -2.938086    0.000000
      3          6           0       -1.075755   -3.590885    0.000000
      4          6           0        0.090952   -2.862794    0.000000
      5          6           0        2.373473    1.502574    0.000000
      6          6           0        2.340526    2.935003    0.000000
      7          6           0        1.140321    3.610544    0.000000
      8          6           0       -0.026827    2.854678    0.000000
      9          6           0       -1.272497    0.688508    0.000000
     10          6           0        1.245162   -0.701911    0.000000
     11          6           0       -1.202002   -0.797885    0.000000
     12          6           0        0.060706   -1.450945    0.000000
     13          6           0        0.000000    1.421254    0.000000
     14          6           0        1.216998    0.738640    0.000000
     15          1           0       -3.321462   -1.045411    0.000000
     16          1           0       -3.222959   -3.510018    0.000000
     17          1           0       -1.038420   -4.671229    0.000000
     18          1           0        1.050685   -3.362964    0.000000
     19          1           0        2.201860   -1.205686    0.000000
     20          1           0        3.338546    1.010878    0.000000
     21          1           0        3.278998    3.472756    0.000000
     22          1           0        1.102575    4.689006    0.000000
     23          1           0       -0.993243    3.345004    0.000000
     24          1           0       -1.872453    1.046008    0.857935
     25          1           0       -1.872453    1.046008   -0.857935
 ---------------------------------------------------------------------

 SCF Done:  E(RM062X) =  -539.756170797     A.U. after   15 cycles

 Excitation energies and oscillator strengths:

 Excited State   1:      Singlet-A'     2.7185 eV  456.08 nm  f=0.0223  <S**2>=0.000
      47 -> 48         0.70358
 This state for optimization and/or second-order correction.
 Total Energy, E(TD-HF/TD-DFT) =  -539.656267907
 Copying the excited state density for this state as the 1-particle RhoCI density.

 The electronic state is 1-A'.
 Alpha  occ. eigenvalues --  -10.77600 -10.73622 -10.72764 -10.72746 -10.72048
 Alpha  occ. eigenvalues --  -10.71805 -10.71758 -10.70962 -10.70937 -10.70265
 Alpha  occ. eigenvalues --  -10.70165 -10.69864 -10.69778 -10.69372  -1.16544
 Alpha  occ. eigenvalues --   -1.12497  -1.06939  -1.05871  -1.01298  -1.00376
 Alpha  occ. eigenvalues --   -0.95643  -0.91056  -0.86438  -0.85911  -0.83805
 Alpha  occ. eigenvalues --   -0.78366  -0.76134  -0.74391  -0.69691  -0.69302
 Alpha  occ. eigenvalues --   -0.68392  -0.68126  -0.68084  -0.65107  -0.64261
 Alpha  occ. eigenvalues --   -0.62891  -0.61711  -0.60306  -0.59367  -0.59131
 Alpha  occ. eigenvalues --   -0.56945  -0.55254  -0.54670  -0.52434  -0.47085
 Alpha  occ. eigenvalues --   -0.46104  -0.44018
 Alpha virt. eigenvalues --   -0.26083  -0.14671  -0.14084  -0.12762  -0.11188
 Alpha virt. eigenvalues --   -0.10096  -0.09248  -0.07969  -0.07935  -0.07482
 Alpha virt. eigenvalues --   -0.07214  -0.07143  -0.05643  -0.05579  -0.05348

 Mulliken charges:
               1
     1  C    0.075902
     2  C   -0.402385
     3  C   -0.435246
     4  C    0.038439
     5  C    0.008186
     6  C   -0.443063
     7  C   -0.412436
     8  C    0.112733
     9  C   -0.322552
    10  C    0.096831
    11  C   -0.653991
    12  C    0.692175
    13  C   -0.620490
    14  C    0.645336
    15  H    0.238992
    16  H    0.259785
    17  H    0.251673
    18  H    0.224903
    19  H    0.189654
    20  H    0.219219
    21  H    0.246297
    22  H    0.253047
    23  H    0.235154
    24  H    0.250918
    25  H    0.250918
 Sum of Mulliken charges =   1.00000

 Dipole moment (field-independent basis, Debye):
    X=             -0.2402    Y=             -0.8206    Z=              0.0000  Tot=              0.8550
 Quadrupole moment (field-independent basis, Debye-Ang):
   XX=            -51.0795   YY=            -36.2684   ZZ=            -84.1340
   XY=             10.1899   XZ=             -0.0000   YZ=              0.0000

 Normal termination of Gaussian 16 at Tue Aug  2 12:00:17 2022.
