 Gaussian 16, Revision C.01,
 Gaussian 16:  ES64L-G16RevC.01  3-Jul-2019

 ---------------------------------------------------------------
 #n M062X/6-311++G(d,p) TD(NStates=1) EmpiricalDispersion=GD3 SP
 ---------------------------------------------------------------

 ------
 SP_-50
 ------
 Symbolic Z-matrix:
 Charge =  1 Multiplicity = 1

                         Standard orientation:
 ---------------------------------------------------------------------
 Center     Atomic      Atomic             Coordinates (Angstroms)
 Number     Number       Type             X           Y           Z
 ---------------------------------------------------------------------
      1          6           0        2.460670    1.465453    0.000000
      2          6           0        2.506534    2.852185    0.000000
      3          6           0        1.304678    3.523022    0.000000
      4          6           0        0.056508    2.799814    0.000000
      5          6           0       -2.505047   -1.408545    0.000000
      6          6           0       -2.522657   -2.774198    0.000000
      7          6           0       -1.320926   -3.486910    0.000000
      8          6           0       -0.099744   -2.816545    0.000000
      9          6           0        1.259385   -0.734385    0.000000
     10          6           0       -1.251886    0.691654    0.000000
     11          6           0        1.212013    0.736191    0.000000
     12          6           0        0.000000    1.417609    0.000000
     13          6           0       -0.058302   -1.445525    0.000000
     14          6           0       -1.274871   -0.702793    0.000000
     15          1           0        3.378348    0.888992    0.000000
     16          1           0        3.447697    3.379505    0.000000
     17          1           0        1.270631    4.604099    0.000000
     18          1           0       -0.862128    3.373712    0.000000
     19          1           0       -2.177436    1.250118    0.000000
     20          1           0       -3.426927   -0.842014    0.000000
     21          1           0       -3.462890   -3.307034    0.000000
     22          1           0       -1.336216   -4.567526    0.000000
     23          1           0        0.821820   -3.385346    0.000000
     24          1           0        1.874486   -1.048333    0.860685
     25          1           0        1.874486   -1.048333   -0.860685
 ---------------------------------------------------------------------

 SCF Done:  E(RM062X) =  -539.753326547     A.U. after   16 cycles

 Excitation energies and oscillator strengths:

 Excited State   1:      Singlet-A'     2.6537 eV  467.21 nm  f=0.0191  <S**2>=0.000
      47 -> 48         0.70351
 This state for optimization and/or second-order correction.
 Total Energy, E(TD-HF/TD-DFT) =  -539.655805187
 Copying the excited state density for this state as the 1-particle RhoCI density.

 The electronic state is 1-A'.
 Alpha  occ. eigenvalues --  -10.77581 -10.73829 -10.72863 -10.72678 -10.72068
 Alpha  occ. eigenvalues --  -10.71936 -10.71884 -10.70998 -10.70797 -10.70235
 Alpha  occ. eigenvalues --  -10.70019 -10.69958 -10.69713 -10.69309  -1.16529
 Alpha  occ. eigenvalues --   -1.12457  -1.06937  -1.05829  -1.01283  -1.00407
 Alpha  occ. eigenvalues --   -0.95553  -0.91017  -0.86441  -0.85883  -0.83767
 Alpha  occ. eigenvalues --   -0.78324  -0.76129  -0.74360  -0.69805  -0.69322
 Alpha  occ. eigenvalues --   -0.68290  -0.68097  -0.68048  -0.65283  -0.64225
 Alpha  occ. eigenvalues --   -0.62716  -0.61554  -0.60490  -0.59238  -0.59171
 Alpha  occ. eigenvalues --   -0.56936  -0.55265  -0.54518  -0.52443  -0.47334
 Alpha  occ. eigenvalues --   -0.46128  -0.43762
 Alpha virt. eigenvalues --   -0.26115  -0.14664  -0.14076  -0.12761  -0.11190
 Alpha virt. eigenvalues --   -0.10092  -0.09261  -0.07958  -0.07928  -0.07484
 Alpha virt. eigenvalues --   -0.07210  -0.07133  -0.05648  -0.05572  -0.05353

 Mulliken charges:
               1
     1  C    0.116117
     2  C   -0.413302
     3  C   -0.444549
     4  C   -0.010532
     5  C    0.024734
     6  C   -0.432070
     7  C   -0.400706
     8  C    0.071257
     9  C   -0.351954
    10  C    0.077656
    11  C   -0.596012
    12  C    0.670713
    13  C   -0.653390
    14  C    0.722905
    15  H    0.235154
    16  H    0.251722
    17  H    0.245280
    18  H    0.218604
    19  H    0.189568
    20  H    0.225759
    21  H    0.252405
    22  H    0.260720
    23  H    0.240205
    24  H    0.249857
    25  H    0.249857
 Sum of Mulliken charges =   1.00000

 Dipole moment (field-independent basis, Debye):
    X=             -0.7212    Y=             -0.8679    Z=             -0.0000  Tot=              1.1284
 Quadrupole moment (field-independent basis, Debye-Ang):
   XX=            -49.1337   YY=            -38.1289   ZZ=            -84.1314
   XY=             11.4117   XZ=             -0.0000   YZ=              0.0000

 Normal termination of Gaussian 16 at Tue Aug  2 11:44:40 2022.
