 Gaussian 16, Revision C.01,
 Gaussian 16:  ES64L-G16RevC.01  3-Jul-2019

 ---------------------------------------------------------------
 #n M062X/6-311++G(d,p) TD(NStates=1) EmpiricalDispersion=GD3 SP
 ---------------------------------------------------------------

 ------
 SP_150
 ------
 Symbolic Z-matrix:
 Charge =  1 Multiplicity = 1

                         Standard orientation:
 ---------------------------------------------------------------------
 Center     Atomic      Atomic             Coordinates (Angstroms)
 Number     Number       Type             X           Y           Z
 ---------------------------------------------------------------------
      1          6           0       -2.366853   -1.553409    0.000000
      2          6           0       -2.318409   -2.943231    0.000000
      3          6           0       -1.086062   -3.591563    0.000000
      4          6           0        0.086397   -2.854400    0.000000
      5          6           0        2.384495    1.503531    0.000000
      6          6           0        2.353922    2.926551    0.000000
      7          6           0        1.148258    3.602251    0.000000
      8          6           0       -0.020535    2.853851    0.000000
      9          6           0       -1.286847    0.694291    0.000000
     10          6           0        1.250426   -0.693373    0.000000
     11          6           0       -1.199409   -0.796309    0.000000
     12          6           0        0.059934   -1.444464    0.000000
     13          6           0        0.000000    1.425360    0.000000
     14          6           0        1.219589    0.740170    0.000000
     15          1           0       -3.325505   -1.049590    0.000000
     16          1           0       -3.234702   -3.515316    0.000000
     17          1           0       -1.041814   -4.671160    0.000000
     18          1           0        1.043966   -3.358561    0.000000
     19          1           0        2.205535   -1.199403    0.000000
     20          1           0        3.345882    1.005482    0.000000
     21          1           0        3.289650    3.467743    0.000000
     22          1           0        1.113239    4.680951    0.000000
     23          1           0       -0.983193    3.350776    0.000000
     24          1           0       -1.881248    1.036775    0.861785
     25          1           0       -1.881248    1.036775   -0.861785
 ---------------------------------------------------------------------

 SCF Done:  E(RM062X) =  -539.758525981     A.U. after   15 cycles

 Excitation energies and oscillator strengths:

 Excited State   1:      Singlet-A'     2.7699 eV  447.62 nm  f=0.0242  <S**2>=0.000
      47 -> 48         0.70382
 This state for optimization and/or second-order correction.
 Total Energy, E(TD-HF/TD-DFT) =  -539.656735127
 Copying the excited state density for this state as the 1-particle RhoCI density.

 The electronic state is 1-A'.
 Alpha  occ. eigenvalues --  -10.77660 -10.73581 -10.72999 -10.72675 -10.72209
 Alpha  occ. eigenvalues --  -10.71640 -10.71521 -10.71093 -10.71009 -10.70492
 Alpha  occ. eigenvalues --  -10.70106 -10.69843 -10.69805 -10.69480  -1.16420
 Alpha  occ. eigenvalues --   -1.12434  -1.06944  -1.05682  -1.01304  -1.00193
 Alpha  occ. eigenvalues --   -0.95726  -0.91029  -0.86418  -0.85881  -0.83790
 Alpha  occ. eigenvalues --   -0.78373  -0.76014  -0.74397  -0.69649  -0.69257
 Alpha  occ. eigenvalues --   -0.68428  -0.68134  -0.68115  -0.64899  -0.64239
 Alpha  occ. eigenvalues --   -0.62891  -0.61779  -0.60225  -0.59499  -0.59124
 Alpha  occ. eigenvalues --   -0.56886  -0.55247  -0.54714  -0.52445  -0.46808
 Alpha  occ. eigenvalues --   -0.46091  -0.44292
 Alpha virt. eigenvalues --   -0.26112  -0.14663  -0.14094  -0.12774  -0.11179
 Alpha virt. eigenvalues --   -0.10082  -0.09238  -0.07976  -0.07968  -0.07477
 Alpha virt. eigenvalues --   -0.07199  -0.07138  -0.05647  -0.05576  -0.05334

 Mulliken charges:
               1
     1  C    0.079829
     2  C   -0.402976
     3  C   -0.436281
     4  C    0.011479
     5  C   -0.005845
     6  C   -0.442822
     7  C   -0.409056
     8  C    0.101766
     9  C   -0.356350
    10  C    0.078634
    11  C   -0.641121
    12  C    0.721241
    13  C   -0.612436
    14  C    0.695634
    15  H    0.239015
    16  H    0.258419
    17  H    0.250566
    18  H    0.223899
    19  H    0.190404
    20  H    0.220322
    21  H    0.246992
    22  H    0.253884
    23  H    0.236450
    24  H    0.249177
    25  H    0.249177
 Sum of Mulliken charges =   1.00000

 Dipole moment (field-independent basis, Debye):
    X=             -0.0952    Y=             -0.5838    Z=             -0.0000  Tot=              0.5915
 Quadrupole moment (field-independent basis, Debye-Ang):
   XX=            -50.9361   YY=            -36.3853   ZZ=            -84.1407
   XY=             10.3153   XZ=              0.0000   YZ=              0.0000

 Normal termination of Gaussian 16 at Tue Aug  2 13:34:42 2022.
