 Gaussian 16, Revision C.01,
 Gaussian 16:  ES64L-G16RevC.01  3-Jul-2019

 ---------------------------------------------------------------
 #n M062X/6-311++G(d,p) TD(NStates=1) EmpiricalDispersion=GD3 SP
 ---------------------------------------------------------------

 -------
 SP_-125
 -------
 Symbolic Z-matrix:
 Charge =  1 Multiplicity = 1

                         Standard orientation:
 ---------------------------------------------------------------------
 Center     Atomic      Atomic             Coordinates (Angstroms)
 Number     Number       Type             X           Y           Z
 ---------------------------------------------------------------------
      1          6           0        0.024571    2.842571    0.000000
      2          6           0       -1.150946    3.588761    0.000000
      3          6           0       -2.358928    2.917347    0.000000
      4          6           0       -2.394045    1.504217    0.000000
      5          6           0       -0.080568   -2.844636    0.000000
      6          6           0        1.101293   -3.584575    0.000000
      7          6           0        2.329967   -2.940534    0.000000
      8          6           0        2.371015   -1.547395    0.000000
      9          6           0        1.272062    0.684580    0.000000
     10          6           0       -1.254328   -0.684294    0.000000
     11          6           0        0.000000    1.428307    0.000000
     12          6           0       -1.225689    0.743138    0.000000
     13          6           0        1.196037   -0.793777    0.000000
     14          6           0       -0.059593   -1.441692    0.000000
     15          1           0        0.984783    3.344394    0.000000
     16          1           0       -1.115433    4.667787    0.000000
     17          1           0       -3.291399    3.464742    0.000000
     18          1           0       -3.353410    1.002177    0.000000
     19          1           0       -2.208442   -1.193045    0.000000
     20          1           0       -1.034817   -3.355719    0.000000
     21          1           0        1.052974   -4.664556    0.000000
     22          1           0        3.247782   -3.509927    0.000000
     23          1           0        3.326209   -1.036498    0.000000
     24          1           0        1.883328    1.024275    0.857385
     25          1           0        1.883328    1.024275   -0.857385
 ---------------------------------------------------------------------

 SCF Done:  E(RM062X) =  -539.759600502     A.U. after   15 cycles

 Excitation energies and oscillator strengths:

 Excited State   1:      Singlet-A'     2.8081 eV  441.52 nm  f=0.0279  <S**2>=0.000
      47 -> 48         0.70410
 This state for optimization and/or second-order correction.
 Total Energy, E(TD-HF/TD-DFT) =  -539.656403507
 Copying the excited state density for this state as the 1-particle RhoCI density.

 The electronic state is 1-A'.
 Alpha  occ. eigenvalues --  -10.77642 -10.73331 -10.73043 -10.72532 -10.72298
 Alpha  occ. eigenvalues --  -10.71499 -10.71273 -10.71224 -10.70952 -10.70758
 Alpha  occ. eigenvalues --  -10.70035 -10.69906 -10.69698 -10.69533  -1.16501
 Alpha  occ. eigenvalues --   -1.12500  -1.06944  -1.05823  -1.01313  -1.00262
 Alpha  occ. eigenvalues --   -0.95759  -0.91075  -0.86427  -0.85920  -0.83830
 Alpha  occ. eigenvalues --   -0.78404  -0.76084  -0.74420  -0.69556  -0.69264
 Alpha  occ. eigenvalues --   -0.68506  -0.68203  -0.68087  -0.64802  -0.64297
 Alpha  occ. eigenvalues --   -0.63109  -0.61854  -0.60018  -0.59631  -0.59086
 Alpha  occ. eigenvalues --   -0.56926  -0.55211  -0.54850  -0.52432  -0.46711
 Alpha  occ. eigenvalues --   -0.46065  -0.44410
 Alpha virt. eigenvalues --   -0.26069  -0.14674  -0.14094  -0.12768  -0.11182
 Alpha virt. eigenvalues --   -0.10093  -0.09232  -0.07981  -0.07957  -0.07478
 Alpha virt. eigenvalues --   -0.07211  -0.07148  -0.05640  -0.05584  -0.05338

 Mulliken charges:
               1
     1  C    0.099279
     2  C   -0.408602
     3  C   -0.441229
     4  C    0.022624
     5  C    0.033124
     6  C   -0.438781
     7  C   -0.405112
     8  C    0.086702
     9  C   -0.313243
    10  C    0.103741
    11  C   -0.636185
    12  C    0.653130
    13  C   -0.645971
    14  C    0.669769
    15  H    0.236199
    16  H    0.255344
    17  H    0.248113
    18  H    0.221027
    19  H    0.190094
    20  H    0.222964
    21  H    0.249915
    22  H    0.257592
    23  H    0.237495
    24  H    0.251005
    25  H    0.251005
 Sum of Mulliken charges =   1.00000

 Dipole moment (field-independent basis, Debye):
    X=             -0.0261    Y=             -0.3314    Z=              0.0000  Tot=              0.3324
 Quadrupole moment (field-independent basis, Debye-Ang):
   XX=            -50.7898   YY=            -36.6164   ZZ=            -84.1392
   XY=            -10.3562   XZ=              0.0000   YZ=              0.0000

 Normal termination of Gaussian 16 at Tue Aug  2 10:51:09 2022.
