 Gaussian 16, Revision C.01,
 Gaussian 16:  ES64L-G16RevC.01  3-Jul-2019

 ---------------------------------------------------------------
 #n M062X/6-311++G(d,p) TD(NStates=1) EmpiricalDispersion=GD3 SP
 ---------------------------------------------------------------

 -------
 SP_-150
 -------
 Symbolic Z-matrix:
 Charge =  1 Multiplicity = 1

                         Standard orientation:
 ---------------------------------------------------------------------
 Center     Atomic      Atomic             Coordinates (Angstroms)
 Number     Number       Type             X           Y           Z
 ---------------------------------------------------------------------
      1          6           0        0.025631    2.845070    0.000000
      2          6           0       -1.148058    3.593941    0.000000
      3          6           0       -2.353930    2.921718    0.000000
      4          6           0       -2.388830    1.503790    0.000000
      5          6           0       -0.083070   -2.849115    0.000000
      6          6           0        1.095178   -3.585781    0.000000
      7          6           0        2.323998   -2.939536    0.000000
      8          6           0        2.368178   -1.545900    0.000000
      9          6           0        1.270678    0.684846    0.000000
     10          6           0       -1.251949   -0.688674    0.000000
     11          6           0        0.000000    1.426480    0.000000
     12          6           0       -1.223689    0.742080    0.000000
     13          6           0        1.197497   -0.794749    0.000000
     14          6           0       -0.059876   -1.444194    0.000000
     15          1           0        0.987464    3.343942    0.000000
     16          1           0       -1.111830    4.672831    0.000000
     17          1           0       -3.287871    3.466831    0.000000
     18          1           0       -3.349709    1.004446    0.000000
     19          1           0       -2.206739   -1.196210    0.000000
     20          1           0       -1.038637   -3.357625    0.000000
     21          1           0        1.049752   -4.665900    0.000000
     22          1           0        3.241658   -3.509416    0.000000
     23          1           0        3.324864   -1.037852    0.000000
     24          1           0        1.880252    1.029542    0.857110
     25          1           0        1.880252    1.029542   -0.857110
 ---------------------------------------------------------------------

 SCF Done:  E(RM062X) =  -539.759023568     A.U. after   15 cycles

 Excitation energies and oscillator strengths:

 Excited State   1:      Singlet-A'     2.7921 eV  444.06 nm  f=0.0268  <S**2>=0.000
      47 -> 48         0.70395
 This state for optimization and/or second-order correction.
 Total Energy, E(TD-HF/TD-DFT) =  -539.656417577
 Copying the excited state density for this state as the 1-particle RhoCI density.

 The electronic state is 1-A'.
 Alpha  occ. eigenvalues --  -10.77632 -10.73395 -10.72964 -10.72584 -10.72234
 Alpha  occ. eigenvalues --  -10.71565 -10.71406 -10.71152 -10.70949 -10.70634
 Alpha  occ. eigenvalues --  -10.70067 -10.69873 -10.69737 -10.69490  -1.16516
 Alpha  occ. eigenvalues --   -1.12506  -1.06943  -1.05844  -1.01311  -1.00290
 Alpha  occ. eigenvalues --   -0.95739  -0.91076  -0.86429  -0.85922  -0.83828
 Alpha  occ. eigenvalues --   -0.78399  -0.76100  -0.74416  -0.69576  -0.69272
 Alpha  occ. eigenvalues --   -0.68490  -0.68193  -0.68084  -0.64861  -0.64292
 Alpha  occ. eigenvalues --   -0.63079  -0.61834  -0.60078  -0.59569  -0.59091
 Alpha  occ. eigenvalues --   -0.56934  -0.55220  -0.54822  -0.52431  -0.46780
 Alpha  occ. eigenvalues --   -0.46074  -0.44336
 Alpha virt. eigenvalues --   -0.26068  -0.14675  -0.14092  -0.12767  -0.11184
 Alpha virt. eigenvalues --   -0.10095  -0.09234  -0.07980  -0.07951  -0.07479
 Alpha virt. eigenvalues --   -0.07212  -0.07148  -0.05640  -0.05584  -0.05340

 Mulliken charges:
               1
     1  C    0.102514
     2  C   -0.409460
     3  C   -0.441678
     4  C    0.021493
     5  C    0.037390
     6  C   -0.438085
     7  C   -0.404205
     8  C    0.083556
     9  C   -0.311214
    10  C    0.104360
    11  C   -0.633664
    12  C    0.645487
    13  C   -0.648162
    14  C    0.670727
    15  H    0.235833
    16  H    0.254802
    17  H    0.247680
    18  H    0.220548
    19  H    0.189985
    20  H    0.223461
    21  H    0.250379
    22  H    0.258173
    23  H    0.237774
    24  H    0.251152
    25  H    0.251152
 Sum of Mulliken charges =   1.00000

 Dipole moment (field-independent basis, Debye):
    X=              0.0414    Y=             -0.4536    Z=              0.0000  Tot=              0.4554
 Quadrupole moment (field-independent basis, Debye-Ang):
   XX=            -50.8628   YY=            -36.5399   ZZ=            -84.1380
   XY=            -10.3077   XZ=              0.0000   YZ=              0.0000

 Normal termination of Gaussian 16 at Tue Aug  2 10:36:32 2022.
