 Gaussian 16, Revision C.01,
 Gaussian 16:  ES64L-G16RevC.01  3-Jul-2019

 ---------------------------------------------------------------
 #n M062X/6-311++G(d,p) TD(NStates=1) EmpiricalDispersion=GD3 SP
 ---------------------------------------------------------------

 -------
 SP_-100
 -------
 Symbolic Z-matrix:
 Charge =  1 Multiplicity = 1

                         Standard orientation:
 ---------------------------------------------------------------------
 Center     Atomic      Atomic             Coordinates (Angstroms)
 Number     Number       Type             X           Y           Z
 ---------------------------------------------------------------------
      1          6           0       -1.361629   -2.488849    0.000000
      2          6           0       -0.672687   -3.699602    0.000000
      3          6           0        0.711832   -3.682655    0.000000
      4          6           0        1.407140   -2.462950    0.000000
      5          6           0        1.407140    2.462962    0.000000
      6          6           0        0.711832    3.682667    0.000000
      7          6           0       -0.672687    3.699614    0.000000
      8          6           0       -1.361629    2.488861    0.000000
      9          6           0       -1.444567   -0.000094    0.000000
     10          6           0        1.428791    0.000006    0.000000
     11          6           0       -0.676963   -1.261749    0.000000
     12          6           0        0.731406   -1.238265    0.000000
     13          6           0       -0.676963    1.261761    0.000000
     14          6           0        0.731406    1.238277    0.000000
     15          1           0       -2.444945   -2.483665    0.000000
     16          1           0       -1.213187   -4.634447    0.000000
     17          1           0        1.269851   -4.608656    0.000000
     18          1           0        2.489761   -2.468144    0.000000
     19          1           0        2.510068    0.000006    0.000000
     20          1           0        2.489761    2.468156    0.000000
     21          1           0        1.269851    4.608668    0.000000
     22          1           0       -1.213187    4.634459    0.000000
     23          1           0       -2.444945    2.483677    0.000000
     24          1           0       -2.143785    0.000006    0.857385
     25          1           0       -2.143785    0.000006   -0.857385
 ---------------------------------------------------------------------

 SCF Done:  E(RM062X) =  -539.760059859     A.U. after   15 cycles

 Excitation energies and oscillator strengths:

 Excited State   1:      Singlet-A'     2.8218 eV  439.37 nm  f=0.0291  <S**2>=0.000
      47 -> 48         0.70426
 This state for optimization and/or second-order correction.
 Total Energy, E(TD-HF/TD-DFT) =  -539.656359255
 Copying the excited state density for this state as the 1-particle RhoCI density.

 The electronic state is 1-A'.
 Alpha  occ. eigenvalues --  -10.77647 -10.73188 -10.73187 -10.72419 -10.72417
 Alpha  occ. eigenvalues --  -10.71363 -10.71363 -10.71013 -10.71013 -10.70953
 Alpha  occ. eigenvalues --  -10.69971 -10.69970 -10.69616 -10.69616  -1.16494
 Alpha  occ. eigenvalues --   -1.12499  -1.06944  -1.05814  -1.01315  -1.00245
 Alpha  occ. eigenvalues --   -0.95775  -0.91077  -0.86425  -0.85921  -0.83832
 Alpha  occ. eigenvalues --   -0.78408  -0.76076  -0.74424  -0.69537  -0.69259
 Alpha  occ. eigenvalues --   -0.68522  -0.68213  -0.68088  -0.64751  -0.64307
 Alpha  occ. eigenvalues --   -0.63142  -0.61872  -0.59945  -0.59703  -0.59080
 Alpha  occ. eigenvalues --   -0.56923  -0.55200  -0.54877  -0.52432  -0.46656
 Alpha  occ. eigenvalues --   -0.46056  -0.44471
 Alpha virt. eigenvalues --   -0.26068  -0.14674  -0.14095  -0.12769  -0.11182
 Alpha virt. eigenvalues --   -0.10093  -0.09230  -0.07984  -0.07960  -0.07477
 Alpha virt. eigenvalues --   -0.07210  -0.07149  -0.05640  -0.05585  -0.05336

 Mulliken charges:
               1
     1  C    0.093224
     2  C   -0.406708
     3  C   -0.440185
     4  C    0.027953
     5  C    0.027997
     6  C   -0.440183
     7  C   -0.406645
     8  C    0.093314
     9  C   -0.312802
    10  C    0.104279
    11  C   -0.640963
    12  C    0.660423
    13  C   -0.640841
    14  C    0.660363
    15  H    0.236829
    16  H    0.256470
    17  H    0.249009
    18  H    0.221987
    19  H    0.190163
    20  H    0.221988
    21  H    0.249011
    22  H    0.256469
    23  H    0.236827
    24  H    0.251011
    25  H    0.251011
 Sum of Mulliken charges =   1.00000

 Dipole moment (field-independent basis, Debye):
    X=              0.1803    Y=              0.0000    Z=             -0.0000  Tot=              0.1803
 Quadrupole moment (field-independent basis, Debye-Ang):
   XX=            -56.2498   YY=            -31.1626   ZZ=            -84.1400
   XY=             -0.0001   XZ=             -0.0000   YZ=             -0.0000

 Normal termination of Gaussian 16 at Tue Aug  2 11:04:43 2022.
