 Gaussian 16, Revision C.01,
 Gaussian 16:  ES64L-G16RevC.01  3-Jul-2019

 ---------------------------------------------------------------
 #n M062X/6-311++G(d,p) TD(NStates=1) EmpiricalDispersion=GD3 SP
 ---------------------------------------------------------------

 -------
 SP_-125
 -------
 Symbolic Z-matrix:
 Charge =  1 Multiplicity = 1

                         Standard orientation:
 ---------------------------------------------------------------------
 Center     Atomic      Atomic             Coordinates (Angstroms)
 Number     Number       Type             X           Y           Z
 ---------------------------------------------------------------------
      1          6           0        2.489961   -1.351464    0.000000
      2          6           0        3.697736   -0.655189    0.000000
      3          6           0        3.678019    0.730108    0.000000
      4          6           0        2.460742    1.419929    0.000000
      5          6           0       -2.464954    1.394061    0.000000
      6          6           0       -3.686307    0.692035    0.000000
      7          6           0       -3.699970   -0.690731    0.000000
      8          6           0       -2.484854   -1.372695    0.000000
      9          6           0        0.004271   -1.441261    0.000000
     10          6           0        0.000000    1.428655    0.000000
     11          6           0        1.265564   -0.673366    0.000000
     12          6           0        1.237975    0.737297    0.000000
     13          6           0       -1.257714   -0.680462    0.000000
     14          6           0       -1.239141    0.725976    0.000000
     15          1           0        2.491615   -2.434783    0.000000
     16          1           0        4.634715   -1.192263    0.000000
     17          1           0        4.603711    1.288739    0.000000
     18          1           0        2.459475    2.502530    0.000000
     19          1           0       -0.005155    2.509995    0.000000
     20          1           0       -2.477209    2.476739    0.000000
     21          1           0       -4.613078    1.249073    0.000000
     22          1           0       -4.632367   -1.235246    0.000000
     23          1           0       -2.472381   -2.456042    0.000000
     24          1           0        0.001358   -2.143048    0.856560
     25          1           0        0.001358   -2.143048   -0.856560
 ---------------------------------------------------------------------

 SCF Done:  E(RM062X) =  -539.759849623     A.U. after   15 cycles

 Excitation energies and oscillator strengths:

 Excited State   1:      Singlet-A'     2.8180 eV  439.98 nm  f=0.0290  <S**2>=0.000
      47 -> 48         0.70422
 This state for optimization and/or second-order correction.
 Total Energy, E(TD-HF/TD-DFT) =  -539.656291547
 Copying the excited state density for this state as the 1-particle RhoCI density.

 The electronic state is 1-A'.
 Alpha  occ. eigenvalues --  -10.77639 -10.73239 -10.73097 -10.72469 -10.72352
 Alpha  occ. eigenvalues --  -10.71430 -10.71292 -10.71145 -10.70943 -10.70888
 Alpha  occ. eigenvalues --  -10.70002 -10.69938 -10.69652 -10.69569  -1.16516
 Alpha  occ. eigenvalues --   -1.12512  -1.06944  -1.05847  -1.01315  -1.00272
 Alpha  occ. eigenvalues --   -0.95768  -0.91085  -0.86428  -0.85928  -0.83838
 Alpha  occ. eigenvalues --   -0.78410  -0.76096  -0.74425  -0.69533  -0.69265
 Alpha  occ. eigenvalues --   -0.68524  -0.68218  -0.68083  -0.64769  -0.64312
 Alpha  occ. eigenvalues --   -0.63162  -0.61869  -0.59947  -0.59688  -0.59077
 Alpha  occ. eigenvalues --   -0.56934  -0.55197  -0.54884  -0.52429  -0.46682
 Alpha  occ. eigenvalues --   -0.46058  -0.44445
 Alpha virt. eigenvalues --   -0.26061  -0.14676  -0.14094  -0.12768  -0.11183
 Alpha virt. eigenvalues --   -0.10095  -0.09230  -0.07983  -0.07955  -0.07478
 Alpha virt. eigenvalues --   -0.07213  -0.07151  -0.05639  -0.05586  -0.05338

 Mulliken charges:
               1
     1  C    0.089435
     2  C   -0.405474
     3  C   -0.439608
     4  C    0.035973
     5  C    0.030559
     6  C   -0.440738
     7  C   -0.407168
     8  C    0.095976
     9  C   -0.305024
    10  C    0.107786
    11  C   -0.643803
    12  C    0.654380
    13  C   -0.639064
    14  C    0.645481
    15  H    0.236974
    16  H    0.257097
    17  H    0.249505
    18  H    0.222483
    19  H    0.190058
    20  H    0.221501
    21  H    0.248608
    22  H    0.255972
    23  H    0.236323
    24  H    0.251385
    25  H    0.251385
 Sum of Mulliken charges =   1.00000

 Dipole moment (field-independent basis, Debye):
    X=              0.1391    Y=              0.1778    Z=             -0.0000  Tot=              0.2258
 Quadrupole moment (field-independent basis, Debye-Ang):
   XX=            -31.1796   YY=            -56.2441   ZZ=            -84.1391
   XY=              0.1765   XZ=              0.0000   YZ=              0.0000

 Normal termination of Gaussian 16 at Tue Aug  2 10:47:51 2022.
