 Gaussian 16, Revision C.01,
 Gaussian 16:  ES64L-G16RevC.01  3-Jul-2019

 ---------------------------------------------------------------
 #n M062X/6-311++G(d,p) TD(NStates=1) EmpiricalDispersion=GD3 SP
 ---------------------------------------------------------------

 ------
 SP_125
 ------
 Symbolic Z-matrix:
 Charge =  1 Multiplicity = 1

                         Standard orientation:
 ---------------------------------------------------------------------
 Center     Atomic      Atomic             Coordinates (Angstroms)
 Number     Number       Type             X           Y           Z
 ---------------------------------------------------------------------
      1          6           0        2.499474   -1.348408    0.000000
      2          6           0        3.702500   -0.653394    0.000000
      3          6           0        3.681007    0.735145    0.000000
      4          6           0        2.461242    1.420946    0.000000
      5          6           0       -2.465454    1.395034    0.000000
      6          6           0       -3.689319    0.696987    0.000000
      7          6           0       -3.704706   -0.689036    0.000000
      8          6           0       -2.494340   -1.369762    0.000000
      9          6           0        0.004144   -1.463267    0.000000
     10          6           0        0.000000    1.429650    0.000000
     11          6           0        1.266337   -0.673608    0.000000
     12          6           0        1.235991    0.735793    0.000000
     13          6           0       -1.258441   -0.680730    0.000000
     14          6           0       -1.237125    0.724469    0.000000
     15          1           0        2.502636   -2.431471    0.000000
     16          1           0        4.640474   -1.188456    0.000000
     17          1           0        4.605189    1.295027    0.000000
     18          1           0        2.457968    2.503288    0.000000
     19          1           0       -0.005162    2.510490    0.000000
     20          1           0       -2.475717    2.477470    0.000000
     21          1           0       -4.614599    1.255275    0.000000
     22          1           0       -4.638108   -1.231564    0.000000
     23          1           0       -2.483360   -2.452865    0.000000
     24          1           0        0.001413   -2.148053    0.862060
     25          1           0        0.001413   -2.148053   -0.862060
 ---------------------------------------------------------------------

 SCF Done:  E(RM062X) =  -539.760157557     A.U. after   15 cycles

 Excitation energies and oscillator strengths:

 Excited State   1:      Singlet-A'     2.8199 eV  439.68 nm  f=0.0279  <S**2>=0.000
      47 -> 48         0.70422
 This state for optimization and/or second-order correction.
 Total Energy, E(TD-HF/TD-DFT) =  -539.656528998
 Copying the excited state density for this state as the 1-particle RhoCI density.

 The electronic state is 1-A'.
 Alpha  occ. eigenvalues --  -10.77684 -10.73373 -10.73226 -10.72513 -10.72396
 Alpha  occ. eigenvalues --  -10.71442 -10.71305 -10.71124 -10.71012 -10.70867
 Alpha  occ. eigenvalues --  -10.70007 -10.69941 -10.69686 -10.69604  -1.16387
 Alpha  occ. eigenvalues --   -1.12428  -1.06946  -1.05638  -1.01312  -1.00122
 Alpha  occ. eigenvalues --   -0.95786  -0.91033  -0.86411  -0.85880  -0.83798
 Alpha  occ. eigenvalues --   -0.78389  -0.75976  -0.74411  -0.69591  -0.69233
 Alpha  occ. eigenvalues --   -0.68481  -0.68167  -0.68121  -0.64737  -0.64257
 Alpha  occ. eigenvalues --   -0.62973  -0.61856  -0.60082  -0.59640  -0.59106
 Alpha  occ. eigenvalues --   -0.56868  -0.55231  -0.54789  -0.52445  -0.46606
 Alpha  occ. eigenvalues --   -0.46059  -0.44517
 Alpha virt. eigenvalues --   -0.26111  -0.14663  -0.14100  -0.12777  -0.11176
 Alpha virt. eigenvalues --   -0.10079  -0.09231  -0.07982  -0.07981  -0.07474
 Alpha virt. eigenvalues --   -0.07196  -0.07141  -0.05646  -0.05578  -0.05328

 Mulliken charges:
               1
     1  C    0.087883
     2  C   -0.404801
     3  C   -0.439203
     4  C    0.003937
     5  C   -0.000482
     6  C   -0.440861
     7  C   -0.406376
     8  C    0.093211
     9  C   -0.357145
    10  C    0.079285
    11  C   -0.630476
    12  C    0.713314
    13  C   -0.623365
    14  C    0.706961
    15  H    0.238049
    16  H    0.256702
    17  H    0.249205
    18  H    0.222533
    19  H    0.190662
    20  H    0.221637
    21  H    0.248311
    22  H    0.255565
    23  H    0.237409
    24  H    0.249023
    25  H    0.249023
 Sum of Mulliken charges =   1.00000

 Dipole moment (field-independent basis, Debye):
    X=              0.1394    Y=              0.1958    Z=             -0.0000  Tot=              0.2403
 Quadrupole moment (field-independent basis, Debye-Ang):
   XX=            -31.0645   YY=            -56.2764   ZZ=            -84.1437
   XY=              0.1769   XZ=             -0.0000   YZ=              0.0000

 Normal termination of Gaussian 16 at Tue Aug  2 13:22:21 2022.
