 Gaussian 16, Revision C.01,
 Gaussian 16:  ES64L-G16RevC.01  3-Jul-2019

 ---------------------------------------------------------------
 #n M062X/6-311++G(d,p) TD(NStates=1) EmpiricalDispersion=GD3 SP
 ---------------------------------------------------------------

 -----
 SP_25
 -----
 Symbolic Z-matrix:
 Charge =  1 Multiplicity = 1

                         Standard orientation:
 ---------------------------------------------------------------------
 Center     Atomic      Atomic             Coordinates (Angstroms)
 Number     Number       Type             X           Y           Z
 ---------------------------------------------------------------------
      1          6           0        0.020836    2.849960    0.000000
      2          6           0       -1.150467    3.596386    0.000000
      3          6           0       -2.357815    2.922092    0.000000
      4          6           0       -2.389514    1.503939    0.000000
      5          6           0       -0.083714   -2.849736    0.000000
      6          6           0        1.092838   -3.589342    0.000000
      7          6           0        2.324284   -2.943188    0.000000
      8          6           0        2.369349   -1.552901    0.000000
      9          6           0        1.284393    0.691864    0.000000
     10          6           0       -1.252614   -0.688908    0.000000
     11          6           0        0.000000    1.427037    0.000000
     12          6           0       -1.222056    0.741432    0.000000
     13          6           0        1.197843   -0.795198    0.000000
     14          6           0       -0.059706   -1.442449    0.000000
     15          1           0        0.982054    3.349613    0.000000
     16          1           0       -1.115732    4.675233    0.000000
     17          1           0       -3.291998    3.465929    0.000000
     18          1           0       -3.349614    1.003506    0.000000
     19          1           0       -2.207129   -1.196216    0.000000
     20          1           0       -1.039819   -3.356865    0.000000
     21          1           0        1.046075   -4.668943    0.000000
     22          1           0        3.241001   -3.514406    0.000000
     23          1           0        3.326408   -1.045926    0.000000
     24          1           0        1.883407    1.031075    0.860960
     25          1           0        1.883407    1.031075   -0.860960
 ---------------------------------------------------------------------

 SCF Done:  E(RM062X) =  -539.759279969     A.U. after   15 cycles

 Excitation energies and oscillator strengths:

 Excited State   1:      Singlet-A'     2.7920 eV  444.07 nm  f=0.0259  <S**2>=0.000
      47 -> 48         0.70396
 This state for optimization and/or second-order correction.
 Total Energy, E(TD-HF/TD-DFT) =  -539.656675544
 Copying the excited state density for this state as the 1-particle RhoCI density.

 The electronic state is 1-A'.
 Alpha  occ. eigenvalues --  -10.77664 -10.73489 -10.73054 -10.72615 -10.72265
 Alpha  occ. eigenvalues --  -10.71573 -10.71391 -10.71162 -10.70997 -10.70619
 Alpha  occ. eigenvalues --  -10.70072 -10.69875 -10.69760 -10.69515  -1.16427
 Alpha  occ. eigenvalues --   -1.12446  -1.06944  -1.05698  -1.01308  -1.00186
 Alpha  occ. eigenvalues --   -0.95751  -0.91039  -0.86418  -0.85889  -0.83800
 Alpha  occ. eigenvalues --   -0.78384  -0.76017  -0.74406  -0.69614  -0.69251
 Alpha  occ. eigenvalues --   -0.68460  -0.68158  -0.68110  -0.64834  -0.64255
 Alpha  occ. eigenvalues --   -0.62957  -0.61818  -0.60147  -0.59561  -0.59111
 Alpha  occ. eigenvalues --   -0.56889  -0.55236  -0.54764  -0.52442  -0.46729
 Alpha  occ. eigenvalues --   -0.46078  -0.44381
 Alpha virt. eigenvalues --   -0.26103  -0.14665  -0.14096  -0.12774  -0.11178
 Alpha virt. eigenvalues --   -0.10083  -0.09235  -0.07979  -0.07970  -0.07476
 Alpha virt. eigenvalues --   -0.07200  -0.07141  -0.05645  -0.05578  -0.05333

 Mulliken charges:
               1
     1  C    0.100294
     2  C   -0.408742
     3  C   -0.442103
     4  C    0.000382
     5  C    0.013852
     6  C   -0.437402
     7  C   -0.404167
     8  C    0.083251
     9  C   -0.347933
    10  C    0.084411
    11  C   -0.621076
    12  C    0.690812
    13  C   -0.641416
    14  C    0.711114
    15  H    0.236605
    16  H    0.254506
    17  H    0.247478
    18  H    0.220705
    19  H    0.190413
    20  H    0.223429
    21  H    0.250163
    22  H    0.257906
    23  H    0.238538
    24  H    0.249490
    25  H    0.249490
 Sum of Mulliken charges =   1.00000

 Dipole moment (field-independent basis, Debye):
    X=              0.0304    Y=             -0.4600    Z=              0.0000  Tot=              0.4610
 Quadrupole moment (field-independent basis, Debye-Ang):
   XX=            -50.8636   YY=            -36.4808   ZZ=            -84.1413
   XY=            -10.3500   XZ=              0.0000   YZ=              0.0000

 Normal termination of Gaussian 16 at Tue Aug  2 12:24:56 2022.
