 Gaussian 16, Revision C.01,
 Gaussian 16:  ES64L-G16RevC.01  3-Jul-2019

 ---------------------------------------------------------------
 #n M062X/6-311++G(d,p) TD(NStates=1) EmpiricalDispersion=GD3 SP
 ---------------------------------------------------------------

 -----
 SP_25
 -----
 Symbolic Z-matrix:
 Charge =  1 Multiplicity = 1

                         Standard orientation:
 ---------------------------------------------------------------------
 Center     Atomic      Atomic             Coordinates (Angstroms)
 Number     Number       Type             X           Y           Z
 ---------------------------------------------------------------------
      1          6           0        0.023919   -2.824344    0.000000
      2          6           0        1.223135   -3.534341    0.000000
      3          6           0        2.435730   -2.850719    0.000000
      4          6           0        2.452596   -1.470761    0.000000
      5          6           0        0.021453    2.813761    0.000000
      6          6           0       -1.197286    3.558042    0.000000
      7          6           0       -2.415236    2.911286    0.000000
      8          6           0       -2.413636    1.521140    0.000000
      9          6           0       -1.269584   -0.700687    0.000000
     10          6           0        1.261289    0.672506    0.000000
     11          6           0        0.021453   -1.440881    0.000000
     12          6           0        1.250991   -0.732080    0.000000
     13          6           0       -1.197286    0.769332    0.000000
     14          6           0        0.036623    1.425146    0.000000
     15          1           0       -0.917066   -3.360656    0.000000
     16          1           0        1.208431   -4.614654    0.000000
     17          1           0        3.366267   -3.400614    0.000000
     18          1           0        3.393544   -0.936059    0.000000
     19          1           0        2.202901    1.203789    0.000000
     20          1           0        0.958350    3.356955    0.000000
     21          1           0       -1.144904    4.638181    0.000000
     22          1           0       -3.342546    3.463387    0.000000
     23          1           0       -3.350240    0.976259    0.000000
     24          1           0       -1.889847   -1.015491    0.858760
     25          1           0       -1.889847   -1.015491   -0.858760
 ---------------------------------------------------------------------

 SCF Done:  E(RM062X) =  -539.757450243     A.U. after   15 cycles

 Excitation energies and oscillator strengths:

 Excited State   1:      Singlet-A'     2.7459 eV  451.53 nm  f=0.0235  <S**2>=0.000
      47 -> 48         0.70368
 This state for optimization and/or second-order correction.
 Total Energy, E(TD-HF/TD-DFT) =  -539.656541173
 Copying the excited state density for this state as the 1-particle RhoCI density.

 The electronic state is 1-A'.
 Alpha  occ. eigenvalues --  -10.77623 -10.73574 -10.72856 -10.72702 -10.72120
 Alpha  occ. eigenvalues --  -10.71697 -10.71667 -10.71012 -10.70970 -10.70382
 Alpha  occ. eigenvalues --  -10.70134 -10.69828 -10.69810 -10.69418  -1.16505
 Alpha  occ. eigenvalues --   -1.12482  -1.06941  -1.05817  -1.01302  -1.00311
 Alpha  occ. eigenvalues --   -0.95684  -0.91053  -0.86431  -0.85906  -0.83806
 Alpha  occ. eigenvalues --   -0.78375  -0.76096  -0.74397  -0.69656  -0.69284
 Alpha  occ. eigenvalues --   -0.68422  -0.68142  -0.68091  -0.65007  -0.64260
 Alpha  occ. eigenvalues --   -0.62927  -0.61754  -0.60244  -0.59437  -0.59121
 Alpha  occ. eigenvalues --   -0.56928  -0.55247  -0.54713  -0.52436  -0.46953
 Alpha  occ. eigenvalues --   -0.46096  -0.44150
 Alpha virt. eigenvalues --   -0.26087  -0.14670  -0.14088  -0.12766  -0.11185
 Alpha virt. eigenvalues --   -0.10092  -0.09242  -0.07973  -0.07947  -0.07480
 Alpha virt. eigenvalues --   -0.07209  -0.07143  -0.05643  -0.05580  -0.05343

 Mulliken charges:
               1
     1  C    0.079184
     2  C   -0.403015
     3  C   -0.436065
     4  C    0.031148
     5  C    0.006425
     6  C   -0.442863
     7  C   -0.411354
     8  C    0.108930
     9  C   -0.329238
    10  C    0.094064
    11  C   -0.651464
    12  C    0.696807
    13  C   -0.621532
    14  C    0.658943
    15  H    0.238804
    16  H    0.259175
    17  H    0.251174
    18  H    0.224392
    19  H    0.189918
    20  H    0.219712
    21  H    0.246699
    22  H    0.253539
    23  H    0.235607
    24  H    0.250506
    25  H    0.250506
 Sum of Mulliken charges =   1.00000

 Dipole moment (field-independent basis, Debye):
    X=              0.4971    Y=             -0.5222    Z=             -0.0000  Tot=              0.7210
 Quadrupole moment (field-independent basis, Debye-Ang):
   XX=            -49.9432   YY=            -37.4091   ZZ=            -84.1367
   XY=            -10.9239   XZ=              0.0000   YZ=              0.0000

 Normal termination of Gaussian 16 at Tue Aug  2 12:16:08 2022.
