 Gaussian 16, Revision C.01,
 Gaussian 16:  ES64L-G16RevC.01  3-Jul-2019

 ---------------------------------------------------------------
 #n M062X/6-311++G(d,p) TD(NStates=1) EmpiricalDispersion=GD3 SP
 ---------------------------------------------------------------

 -------
 SP_-125
 -------
 Symbolic Z-matrix:
 Charge =  1 Multiplicity = 1

                         Standard orientation:
 ---------------------------------------------------------------------
 Center     Atomic      Atomic             Coordinates (Angstroms)
 Number     Number       Type             X           Y           Z
 ---------------------------------------------------------------------
      1          6           0        2.485775   -1.372427    0.000000
      2          6           0        3.700423   -0.690598    0.000000
      3          6           0        3.686601    0.692494    0.000000
      4          6           0        2.465004    1.394134    0.000000
      5          6           0       -2.460792    1.420055    0.000000
      6          6           0       -3.678324    0.730648    0.000000
      7          6           0       -3.698233   -0.654972    0.000000
      8          6           0       -2.490940   -1.351134    0.000000
      9          6           0       -0.004062   -1.443463    0.000000
     10          6           0       -0.000000    1.428755    0.000000
     11          6           0        1.257765   -0.680501    0.000000
     12          6           0        1.238933    0.725813    0.000000
     13          6           0       -1.265662   -0.673378    0.000000
     14          6           0       -1.237783    0.737159    0.000000
     15          1           0        2.473441   -2.455749    0.000000
     16          1           0        4.632915   -1.234924    0.000000
     17          1           0        4.613228    1.249648    0.000000
     18          1           0        2.477070    2.476787    0.000000
     19          1           0        0.005166    2.510045    0.000000
     20          1           0       -2.459314    2.502630    0.000000
     21          1           0       -4.603860    1.289413    0.000000
     22          1           0       -4.635317   -1.191837    0.000000
     23          1           0       -2.492756   -2.434427    0.000000
     24          1           0       -0.001399   -2.143549    0.857110
     25          1           0       -0.001399   -2.143549   -0.857110
 ---------------------------------------------------------------------

 SCF Done:  E(RM062X) =  -539.759918702     A.U. after   15 cycles

 Excitation energies and oscillator strengths:

 Excited State   1:      Singlet-A'     2.8182 eV  439.94 nm  f=0.0289  <S**2>=0.000
      47 -> 48         0.70422
 This state for optimization and/or second-order correction.
 Total Energy, E(TD-HF/TD-DFT) =  -539.656351346
 Copying the excited state density for this state as the 1-particle RhoCI density.

 The electronic state is 1-A'.
 Alpha  occ. eigenvalues --  -10.77643 -10.73253 -10.73109 -10.72473 -10.72356
 Alpha  occ. eigenvalues --  -10.71431 -10.71293 -10.71143 -10.70950 -10.70886
 Alpha  occ. eigenvalues --  -10.70003 -10.69938 -10.69655 -10.69572  -1.16502
 Alpha  occ. eigenvalues --   -1.12504  -1.06944  -1.05827  -1.01314  -1.00257
 Alpha  occ. eigenvalues --   -0.95770  -0.91079  -0.86426  -0.85923  -0.83834
 Alpha  occ. eigenvalues --   -0.78408  -0.76084  -0.74423  -0.69539  -0.69262
 Alpha  occ. eigenvalues --   -0.68520  -0.68213  -0.68086  -0.64766  -0.64307
 Alpha  occ. eigenvalues --   -0.63143  -0.61868  -0.59960  -0.59684  -0.59080
 Alpha  occ. eigenvalues --   -0.56927  -0.55201  -0.54875  -0.52431  -0.46674
 Alpha  occ. eigenvalues --   -0.46059  -0.44452
 Alpha virt. eigenvalues --   -0.26066  -0.14675  -0.14095  -0.12769  -0.11183
 Alpha virt. eigenvalues --   -0.10094  -0.09230  -0.07983  -0.07958  -0.07478
 Alpha virt. eigenvalues --   -0.07211  -0.07150  -0.05640  -0.05585  -0.05337

 Mulliken charges:
               1
     1  C    0.096244
     2  C   -0.407501
     3  C   -0.440760
     4  C    0.026981
     5  C    0.032402
     6  C   -0.439564
     7  C   -0.405682
     8  C    0.090038
     9  C   -0.310282
    10  C    0.105393
    11  C   -0.638721
    12  C    0.652739
    13  C   -0.643430
    14  C    0.661196
    15  H    0.236449
    16  H    0.255928
    17  H    0.248575
    18  H    0.221502
    19  H    0.190117
    20  H    0.222477
    21  H    0.249476
    22  H    0.257054
    23  H    0.237093
    24  H    0.251138
    25  H    0.251138
 Sum of Mulliken charges =   1.00000

 Dipole moment (field-independent basis, Debye):
    X=             -0.1392    Y=              0.1797    Z=              0.0000  Tot=              0.2273
 Quadrupole moment (field-independent basis, Debye-Ang):
   XX=            -31.1677   YY=            -56.2474   ZZ=            -84.1396
   XY=             -0.1767   XZ=              0.0000   YZ=             -0.0000

 Normal termination of Gaussian 16 at Tue Aug  2 10:50:02 2022.
