 Gaussian 16, Revision C.01,
 Gaussian 16:  ES64L-G16RevC.01  3-Jul-2019

 ---------------------------------------------------------------
 #n M062X/6-311++G(d,p) TD(NStates=1) EmpiricalDispersion=GD3 SP
 ---------------------------------------------------------------

 -----
 SP_25
 -----
 Symbolic Z-matrix:
 Charge =  1 Multiplicity = 1

                         Standard orientation:
 ---------------------------------------------------------------------
 Center     Atomic      Atomic             Coordinates (Angstroms)
 Number     Number       Type             X           Y           Z
 ---------------------------------------------------------------------
      1          6           0        0.021225    2.853163    0.000000
      2          6           0       -1.147905    3.601918    0.000000
      3          6           0       -2.353361    2.926518    0.000000
      4          6           0       -2.384397    1.503531    0.000000
      5          6           0       -0.086323   -2.854300    0.000000
      6          6           0        1.086376   -3.591049    0.000000
      7          6           0        2.318350   -2.942708    0.000000
      8          6           0        2.366674   -1.552408    0.000000
      9          6           0        1.284978    0.693119    0.000000
     10          6           0       -1.250340   -0.693323    0.000000
     11          6           0        0.000000    1.425291    0.000000
     12          6           0       -1.219825    0.740280    0.000000
     13          6           0        1.199350   -0.796239    0.000000
     14          6           0       -0.059971   -1.444702    0.000000
     15          1           0        0.983974    3.349973    0.000000
     16          1           0       -1.112668    4.680623    0.000000
     17          1           0       -3.289052    3.467896    0.000000
     18          1           0       -3.345897    1.005641    0.000000
     19          1           0       -2.205490   -1.199382    0.000000
     20          1           0       -1.043817   -3.358654    0.000000
     21          1           0        1.042314   -4.670719    0.000000
     22          1           0        3.234775   -3.514606    0.000000
     23          1           0        3.325275   -1.048439    0.000000
     24          1           0        1.880796    1.036560    0.861235
     25          1           0        1.880796    1.036560   -0.861235
 ---------------------------------------------------------------------

 SCF Done:  E(RM062X) =  -539.758527481     A.U. after   15 cycles

 Excitation energies and oscillator strengths:

 Excited State   1:      Singlet-A'     2.7701 eV  447.58 nm  f=0.0243  <S**2>=0.000
      47 -> 48         0.70382
 This state for optimization and/or second-order correction.
 Total Energy, E(TD-HF/TD-DFT) =  -539.656727383
 Copying the excited state density for this state as the 1-particle RhoCI density.

 The electronic state is 1-A'.
 Alpha  occ. eigenvalues --  -10.77656 -10.73566 -10.72987 -10.72671 -10.72204
 Alpha  occ. eigenvalues --  -10.71639 -10.71523 -10.71092 -10.71001 -10.70494
 Alpha  occ. eigenvalues --  -10.70105 -10.69843 -10.69802 -10.69476  -1.16433
 Alpha  occ. eigenvalues --   -1.12442  -1.06943  -1.05703  -1.01305  -1.00208
 Alpha  occ. eigenvalues --   -0.95724  -0.91034  -0.86420  -0.85886  -0.83794
 Alpha  occ. eigenvalues --   -0.78375  -0.76025  -0.74399  -0.69644  -0.69260
 Alpha  occ. eigenvalues --   -0.68433  -0.68139  -0.68111  -0.64903  -0.64245
 Alpha  occ. eigenvalues --   -0.62907  -0.61782  -0.60215  -0.59501  -0.59121
 Alpha  occ. eigenvalues --   -0.56892  -0.55244  -0.54723  -0.52443  -0.46815
 Alpha  occ. eigenvalues --   -0.46090  -0.44287
 Alpha virt. eigenvalues --   -0.26107  -0.14665  -0.14094  -0.12773  -0.11180
 Alpha virt. eigenvalues --   -0.10083  -0.09238  -0.07976  -0.07966  -0.07477
 Alpha virt. eigenvalues --   -0.07200  -0.07140  -0.05646  -0.05577  -0.05335

 Mulliken charges:
               1
     1  C    0.102805
     2  C   -0.409393
     3  C   -0.442745
     4  C   -0.003308
     5  C    0.014390
     6  C   -0.436378
     7  C   -0.403329
     8  C    0.080364
     9  C   -0.351318
    10  C    0.081799
    11  C   -0.615264
    12  C    0.690235
    13  C   -0.643153
    14  C    0.716687
    15  H    0.236355
    16  H    0.253921
    17  H    0.247020
    18  H    0.220288
    19  H    0.190340
    20  H    0.223895
    21  H    0.250595
    22  H    0.258453
    23  H    0.238924
    24  H    0.249407
    25  H    0.249407
 Sum of Mulliken charges =   1.00000

 Dipole moment (field-independent basis, Debye):
    X=              0.0967    Y=             -0.5828    Z=              0.0000  Tot=              0.5908
 Quadrupole moment (field-independent basis, Debye-Ang):
   XX=            -50.9361   YY=            -36.3932   ZZ=            -84.1403
   XY=            -10.3092   XZ=              0.0000   YZ=             -0.0000

 Normal termination of Gaussian 16 at Tue Aug  2 12:26:03 2022.
