 Gaussian 16, Revision C.01,
 Gaussian 16:  ES64L-G16RevC.01  3-Jul-2019

 ---------------------------------------------------------------
 #n M062X/6-311++G(d,p) TD(NStates=1) EmpiricalDispersion=GD3 SP
 ---------------------------------------------------------------

 -------
 SP_-100
 -------
 Symbolic Z-matrix:
 Charge =  1 Multiplicity = 1

                         Standard orientation:
 ---------------------------------------------------------------------
 Center     Atomic      Atomic             Coordinates (Angstroms)
 Number     Number       Type             X           Y           Z
 ---------------------------------------------------------------------
      1          6           0        0.023885    2.843269    0.000000
      2          6           0       -1.151290    3.589110    0.000000
      3          6           0       -2.359483    2.917400    0.000000
      4          6           0       -2.394142    1.504238    0.000000
      5          6           0       -0.080659   -2.844724    0.000000
      6          6           0        1.100959   -3.585084    0.000000
      7          6           0        2.330009   -2.941056    0.000000
      8          6           0        2.371183   -1.548395    0.000000
      9          6           0        1.274020    0.685585    0.000000
     10          6           0       -1.254423   -0.684328    0.000000
     11          6           0        0.000000    1.428386    0.000000
     12          6           0       -1.225455    0.743045    0.000000
     13          6           0        1.196086   -0.793842    0.000000
     14          6           0       -0.059569   -1.441443    0.000000
     15          1           0        0.984010    3.345203    0.000000
     16          1           0       -1.115991    4.668130    0.000000
     17          1           0       -3.291988    3.464613    0.000000
     18          1           0       -3.353396    1.002043    0.000000
     19          1           0       -2.208498   -1.193046    0.000000
     20          1           0       -1.034986   -3.355611    0.000000
     21          1           0        1.052449   -4.664991    0.000000
     22          1           0        3.247689   -3.510640    0.000000
     23          1           0        3.326430   -1.037651    0.000000
     24          1           0        1.883778    1.024495    0.857935
     25          1           0        1.883778    1.024495   -0.857935
 ---------------------------------------------------------------------

 SCF Done:  E(RM062X) =  -539.759657669     A.U. after   15 cycles

 Excitation energies and oscillator strengths:

 Excited State   1:      Singlet-A'     2.8083 eV  441.49 nm  f=0.0278  <S**2>=0.000
      47 -> 48         0.70410
 This state for optimization and/or second-order correction.
 Total Energy, E(TD-HF/TD-DFT) =  -539.656454905
 Copying the excited state density for this state as the 1-particle RhoCI density.

 The electronic state is 1-A'.
 Alpha  occ. eigenvalues --  -10.77646 -10.73344 -10.73056 -10.72536 -10.72303
 Alpha  occ. eigenvalues --  -10.71501 -10.71271 -10.71225 -10.70959 -10.70756
 Alpha  occ. eigenvalues --  -10.70036 -10.69906 -10.69701 -10.69537  -1.16488
 Alpha  occ. eigenvalues --   -1.12492  -1.06944  -1.05802  -1.01312  -1.00247
 Alpha  occ. eigenvalues --   -0.95761  -0.91070  -0.86425  -0.85915  -0.83826
 Alpha  occ. eigenvalues --   -0.78402  -0.76072  -0.74419  -0.69562  -0.69261
 Alpha  occ. eigenvalues --   -0.68502  -0.68198  -0.68090  -0.64798  -0.64292
 Alpha  occ. eigenvalues --   -0.63090  -0.61853  -0.60029  -0.59629  -0.59089
 Alpha  occ. eigenvalues --   -0.56920  -0.55214  -0.54841  -0.52433  -0.46703
 Alpha  occ. eigenvalues --   -0.46066  -0.44418
 Alpha virt. eigenvalues --   -0.26074  -0.14673  -0.14095  -0.12769  -0.11181
 Alpha virt. eigenvalues --   -0.10091  -0.09232  -0.07981  -0.07959  -0.07477
 Alpha virt. eigenvalues --   -0.07209  -0.07147  -0.05641  -0.05583  -0.05337

 Mulliken charges:
               1
     1  C    0.099376
     2  C   -0.408702
     3  C   -0.441269
     4  C    0.019302
     5  C    0.029569
     6  C   -0.438705
     7  C   -0.405288
     8  C    0.086986
     9  C   -0.318535
    10  C    0.101147
    11  C   -0.635145
    12  C    0.660125
    13  C   -0.645523
    14  C    0.676239
    15  H    0.236318
    16  H    0.255300
    17  H    0.248083
    18  H    0.221039
    19  H    0.190154
    20  H    0.222956
    21  H    0.249884
    22  H    0.257551
    23  H    0.237613
    24  H    0.250762
    25  H    0.250762
 Sum of Mulliken charges =   1.00000

 Dipole moment (field-independent basis, Debye):
    X=             -0.0277    Y=             -0.3323    Z=              0.0000  Tot=              0.3335
 Quadrupole moment (field-independent basis, Debye-Ang):
   XX=            -50.7899   YY=            -36.6078   ZZ=            -84.1396
   XY=            -10.3623   XZ=              0.0000   YZ=              0.0000

 Normal termination of Gaussian 16 at Tue Aug  2 11:06:54 2022.
