 Gaussian 16, Revision C.01,
 Gaussian 16:  ES64L-G16RevC.01  3-Jul-2019

 ---------------------------------------------------------------
 #n M062X/6-311++G(d,p) TD(NStates=1) EmpiricalDispersion=GD3 SP
 ---------------------------------------------------------------

 -------
 SP_-100
 -------
 Symbolic Z-matrix:
 Charge =  1 Multiplicity = 1

                         Standard orientation:
 ---------------------------------------------------------------------
 Center     Atomic      Atomic             Coordinates (Angstroms)
 Number     Number       Type             X           Y           Z
 ---------------------------------------------------------------------
      1          6           0        2.463060    1.464996    0.000000
      2          6           0        2.512215    2.852005    0.000000
      3          6           0        1.311064    3.520533    0.000000
      4          6           0        0.058699    2.795032    0.000000
      5          6           0       -2.509994   -1.408840    0.000000
      6          6           0       -2.526082   -2.769711    0.000000
      7          6           0       -1.322525   -3.481039    0.000000
      8          6           0       -0.099002   -2.812695    0.000000
      9          6           0        1.257072   -0.731852    0.000000
     10          6           0       -1.254399    0.687250    0.000000
     11          6           0        1.210343    0.735279    0.000000
     12          6           0        0.000000    1.415603    0.000000
     13          6           0       -0.058293   -1.447209    0.000000
     14          6           0       -1.277363   -0.704001    0.000000
     15          1           0        3.379011    0.885544    0.000000
     16          1           0        3.453720    3.378510    0.000000
     17          1           0        1.274426    4.601778    0.000000
     18          1           0       -0.858349    3.371742    0.000000
     19          1           0       -2.179329    1.246889    0.000000
     20          1           0       -3.430493   -0.840074    0.000000
     21          1           0       -3.464899   -3.305355    0.000000
     22          1           0       -1.338027   -4.561793    0.000000
     23          1           0        0.821008   -3.384065    0.000000
     24          1           0        1.877082   -1.042643    0.859860
     25          1           0        1.877082   -1.042643   -0.859860
 ---------------------------------------------------------------------

 SCF Done:  E(RM062X) =  -539.751431006     A.U. after   16 cycles

 Excitation energies and oscillator strengths:

 Excited State   1:      Singlet-A'     2.6214 eV  472.96 nm  f=0.0183  <S**2>=0.000
      47 -> 48         0.70346
 This state for optimization and/or second-order correction.
 Total Energy, E(TD-HF/TD-DFT) =  -539.655094595
 Copying the excited state density for this state as the 1-particle RhoCI density.

 The electronic state is 1-A'.
 Alpha  occ. eigenvalues --  -10.77550 -10.73874 -10.72901 -10.72586 -10.72208
 Alpha  occ. eigenvalues --  -10.71941 -10.71861 -10.70989 -10.70720 -10.70266
 Alpha  occ. eigenvalues --  -10.69992 -10.69908 -10.69680 -10.69263  -1.16577
 Alpha  occ. eigenvalues --   -1.12473  -1.06935  -1.05897  -1.01276  -1.00489
 Alpha  occ. eigenvalues --   -0.95498  -0.91017  -0.86450  -0.85888  -0.83762
 Alpha  occ. eigenvalues --   -0.78309  -0.76176  -0.74351  -0.69851  -0.69343
 Alpha  occ. eigenvalues --   -0.68251  -0.68088  -0.68027  -0.65396  -0.64227
 Alpha  occ. eigenvalues --   -0.62676  -0.61490  -0.60555  -0.59183  -0.59168
 Alpha  occ. eigenvalues --   -0.56955  -0.55267  -0.54462  -0.52441  -0.47493
 Alpha  occ. eigenvalues --   -0.46134  -0.43609
 Alpha virt. eigenvalues --   -0.26112  -0.14666  -0.14069  -0.12756  -0.11195
 Alpha virt. eigenvalues --   -0.10096  -0.09269  -0.07952  -0.07912  -0.07487
 Alpha virt. eigenvalues --   -0.07215  -0.07131  -0.05648  -0.05571  -0.05360

 Mulliken charges:
               1
     1  C    0.120774
     2  C   -0.414797
     3  C   -0.444638
     4  C   -0.009422
     5  C    0.031233
     6  C   -0.431141
     7  C   -0.400288
     8  C    0.069294
     9  C   -0.346415
    10  C    0.079813
    11  C   -0.594695
    12  C    0.658714
    13  C   -0.657173
    14  C    0.719073
    15  H    0.234761
    16  H    0.251231
    17  H    0.244880
    18  H    0.218138
    19  H    0.189212
    20  H    0.226253
    21  H    0.252895
    22  H    0.261316
    23  H    0.240413
    24  H    0.250285
    25  H    0.250285
 Sum of Mulliken charges =   1.00000

 Dipole moment (field-independent basis, Debye):
    X=             -0.7860    Y=             -0.9889    Z=             -0.0000  Tot=              1.2633
 Quadrupole moment (field-independent basis, Debye-Ang):
   XX=            -49.0523   YY=            -38.1962   ZZ=            -84.1277
   XY=             11.4587   XZ=              0.0000   YZ=             -0.0000

 Normal termination of Gaussian 16 at Tue Aug  2 11:15:00 2022.
