 Gaussian 16, Revision C.01,
 Gaussian 16:  ES64L-G16RevC.01  3-Jul-2019

 ---------------------------------------------------------------
 #n M062X/6-311++G(d,p) TD(NStates=1) EmpiricalDispersion=GD3 SP
 ---------------------------------------------------------------

 ----
 SP_0
 ----
 Symbolic Z-matrix:
 Charge =  1 Multiplicity = 1

                         Standard orientation:
 ---------------------------------------------------------------------
 Center     Atomic      Atomic             Coordinates (Angstroms)
 Number     Number       Type             X           Y           Z
 ---------------------------------------------------------------------
      1          6           0       -2.368675   -1.548900    0.000000
      2          6           0       -2.324114   -2.941101    0.000000
      3          6           0       -1.094167   -3.587305    0.000000
      4          6           0        0.083353   -2.849376    0.000000
      5          6           0        2.389123    1.503862    0.000000
      6          6           0        2.355593    2.921886    0.000000
      7          6           0        1.149087    3.594995    0.000000
      8          6           0       -0.023578    2.847170    0.000000
      9          6           0       -1.276590    0.687790    0.000000
     10          6           0        1.252237   -0.688768    0.000000
     11          6           0       -1.197642   -0.794939    0.000000
     12          6           0        0.059808   -1.443442    0.000000
     13          6           0        0.000000    1.426723    0.000000
     14          6           0        1.222990    0.741808    0.000000
     15          1           0       -3.325522   -1.041313    0.000000
     16          1           0       -3.241369   -3.511556    0.000000
     17          1           0       -1.048167   -4.667202    0.000000
     18          1           0        1.039151   -3.357293    0.000000
     19          1           0        2.206910   -1.196205    0.000000
     20          1           0        3.349669    1.004053    0.000000
     21          1           0        3.289636    3.466454    0.000000
     22          1           0        1.113497    4.673867    0.000000
     23          1           0       -0.985149    3.346375    0.000000
     24          1           0       -1.881603    1.030200    0.858760
     25          1           0       -1.881603    1.030200   -0.858760
 ---------------------------------------------------------------------

 SCF Done:  E(RM062X) =  -539.759185170     A.U. after   15 cycles

 Excitation energies and oscillator strengths:

 Excited State   1:      Singlet-A'     2.7921 eV  444.05 nm  f=0.0264  <S**2>=0.000
      47 -> 48         0.70395
 This state for optimization and/or second-order correction.
 Total Energy, E(TD-HF/TD-DFT) =  -539.656575638
 Copying the excited state density for this state as the 1-particle RhoCI density.

 The electronic state is 1-A'.
 Alpha  occ. eigenvalues --  -10.77646 -10.73435 -10.73003 -10.72598 -10.72248
 Alpha  occ. eigenvalues --  -10.71569 -10.71400 -10.71156 -10.70969 -10.70628
 Alpha  occ. eigenvalues --  -10.70069 -10.69874 -10.69747 -10.69501  -1.16477
 Alpha  occ. eigenvalues --   -1.12480  -1.06943  -1.05782  -1.01309  -1.00245
 Alpha  occ. eigenvalues --   -0.95744  -0.91060  -0.86425  -0.85908  -0.83816
 Alpha  occ. eigenvalues --   -0.78393  -0.76064  -0.74412  -0.69592  -0.69263
 Alpha  occ. eigenvalues --   -0.68477  -0.68178  -0.68094  -0.64850  -0.64276
 Alpha  occ. eigenvalues --   -0.63027  -0.61827  -0.60106  -0.59567  -0.59100
 Alpha  occ. eigenvalues --   -0.56914  -0.55227  -0.54798  -0.52436  -0.46758
 Alpha  occ. eigenvalues --   -0.46076  -0.44355
 Alpha virt. eigenvalues --   -0.26083  -0.14670  -0.14094  -0.12770  -0.11181
 Alpha virt. eigenvalues --   -0.10090  -0.09234  -0.07979  -0.07959  -0.07478
 Alpha virt. eigenvalues --   -0.07207  -0.07145  -0.05642  -0.05582  -0.05337

 Mulliken charges:
               1
     1  C    0.084270
     2  C   -0.404660
     3  C   -0.437773
     4  C    0.026710
     5  C    0.011870
     6  C   -0.441877
     7  C   -0.409558
     8  C    0.102427
     9  C   -0.327089
    10  C    0.096352
    11  C   -0.646803
    12  C    0.689373
    13  C   -0.629620
    14  C    0.666418
    15  H    0.238122
    16  H    0.258054
    17  H    0.250285
    18  H    0.223430
    19  H    0.190166
    20  H    0.220602
    21  H    0.247592
    22  H    0.254670
    23  H    0.236185
    24  H    0.250427
    25  H    0.250427
 Sum of Mulliken charges =   1.00000

 Dipole moment (field-independent basis, Debye):
    X=             -0.0366    Y=             -0.4563    Z=             -0.0000  Tot=              0.4578
 Quadrupole moment (field-independent basis, Debye-Ang):
   XX=            -50.8632   YY=            -36.5141   ZZ=            -84.1395
   XY=             10.3260   XZ=              0.0000   YZ=             -0.0000

 Normal termination of Gaussian 16 at Tue Aug  2 12:03:34 2022.
