 Gaussian 16, Revision C.01,
 Gaussian 16:  ES64L-G16RevC.01  3-Jul-2019

 ---------------------------------------------------------------
 #n M062X/6-311++G(d,p) TD(NStates=1) EmpiricalDispersion=GD3 SP
 ---------------------------------------------------------------

 -----
 SP_25
 -----
 Symbolic Z-matrix:
 Charge =  1 Multiplicity = 1

                         Standard orientation:
 ---------------------------------------------------------------------
 Center     Atomic      Atomic             Coordinates (Angstroms)
 Number     Number       Type             X           Y           Z
 ---------------------------------------------------------------------
      1          6           0       -2.366005   -1.548406    0.000000
      2          6           0       -2.318183   -2.940621    0.000000
      3          6           0       -1.087709   -3.589014    0.000000
      4          6           0        0.085959   -2.853943    0.000000
      5          6           0        2.384005    1.503451    0.000000
      6          6           0        2.351139    2.926308    0.000000
      7          6           0        1.146527    3.600523    0.000000
      8          6           0       -0.023964    2.850369    0.000000
      9          6           0       -1.277160    0.689073    0.000000
     10          6           0        1.249962   -0.693185    0.000000
     11          6           0       -1.199150   -0.795981    0.000000
     12          6           0        0.060072   -1.445696    0.000000
     13          6           0        0.000000    1.424976    0.000000
     14          6           0        1.220758    0.740655    0.000000
     15          1           0       -3.324393   -1.043826    0.000000
     16          1           0       -3.235148   -3.511756    0.000000
     17          1           0       -1.044410   -4.668980    0.000000
     18          1           0        1.043148   -3.359085    0.000000
     19          1           0        2.205270   -1.199372    0.000000
     20          1           0        3.345951    1.006185    0.000000
     21          1           0        3.286691    3.468416    0.000000
     22          1           0        1.110435    4.679253    0.000000
     23          1           0       -0.987065    3.346731    0.000000
     24          1           0       -1.878992    1.035686    0.859035
     25          1           0       -1.878992    1.035686   -0.859035
 ---------------------------------------------------------------------

 SCF Done:  E(RM062X) =  -539.758444788     A.U. after   15 cycles

 Excitation energies and oscillator strengths:

 Excited State   1:      Singlet-A'     2.7708 eV  447.46 nm  f=0.0249  <S**2>=0.000
      47 -> 48         0.70381
 This state for optimization and/or second-order correction.
 Total Energy, E(TD-HF/TD-DFT) =  -539.656618149
 Copying the excited state density for this state as the 1-particle RhoCI density.

 The electronic state is 1-A'.
 Alpha  occ. eigenvalues --  -10.77638 -10.73512 -10.72936 -10.72653 -10.72187
 Alpha  occ. eigenvalues --  -10.71634 -10.71532 -10.71086 -10.70973 -10.70503
 Alpha  occ. eigenvalues --  -10.70102 -10.69842 -10.69790 -10.69461  -1.16483
 Alpha  occ. eigenvalues --   -1.12477  -1.06942  -1.05786  -1.01306  -1.00267
 Alpha  occ. eigenvalues --   -0.95718  -0.91055  -0.86427  -0.85904  -0.83810
 Alpha  occ. eigenvalues --   -0.78384  -0.76072  -0.74405  -0.69624  -0.69271
 Alpha  occ. eigenvalues --   -0.68450  -0.68160  -0.68095  -0.64920  -0.64265
 Alpha  occ. eigenvalues --   -0.62972  -0.61794  -0.60177  -0.59503  -0.59111
 Alpha  occ. eigenvalues --   -0.56917  -0.55238  -0.54755  -0.52437  -0.46843
 Alpha  occ. eigenvalues --   -0.46087  -0.44264
 Alpha virt. eigenvalues --   -0.26087  -0.14670  -0.14092  -0.12769  -0.11182
 Alpha virt. eigenvalues --   -0.10090  -0.09238  -0.07976  -0.07955  -0.07478
 Alpha virt. eigenvalues --   -0.07207  -0.07144  -0.05643  -0.05580  -0.05339

 Mulliken charges:
               1
     1  C    0.081541
     2  C   -0.403917
     3  C   -0.436834
     4  C    0.027222
     5  C    0.007701
     6  C   -0.442431
     7  C   -0.410409
     8  C    0.105431
     9  C   -0.330599
    10  C    0.093941
    11  C   -0.648639
    12  C    0.695971
    13  C   -0.624919
    14  C    0.666108
    15  H    0.238518
    16  H    0.258597
    17  H    0.250718
    18  H    0.223907
    19  H    0.190089
    20  H    0.220164
    21  H    0.247130
    22  H    0.254084
    23  H    0.235946
    24  H    0.250340
    25  H    0.250340
 Sum of Mulliken charges =   1.00000

 Dipole moment (field-independent basis, Debye):
    X=             -0.1028    Y=             -0.5792    Z=             -0.0000  Tot=              0.5882
 Quadrupole moment (field-independent basis, Debye-Ang):
   XX=            -50.9357   YY=            -36.4264   ZZ=            -84.1384
   XY=             10.2853   XZ=              0.0000   YZ=              0.0000

 Normal termination of Gaussian 16 at Tue Aug  2 12:17:14 2022.
