 Gaussian 16, Revision C.01,
 Gaussian 16:  ES64L-G16RevC.01  3-Jul-2019

 ---------------------------------------------------------------
 #n M062X/6-311++G(d,p) TD(NStates=1) EmpiricalDispersion=GD3 SP
 ---------------------------------------------------------------

 -------
 SP_-100
 -------
 Symbolic Z-matrix:
 Charge =  1 Multiplicity = 1

                         Standard orientation:
 ---------------------------------------------------------------------
 Center     Atomic      Atomic             Coordinates (Angstroms)
 Number     Number       Type             X           Y           Z
 ---------------------------------------------------------------------
      1          6           0        2.486730   -1.372128    0.000000
      2          6           0        3.700901   -0.690421    0.000000
      3          6           0        3.686904    0.692997    0.000000
      4          6           0        2.465054    1.394236    0.000000
      5          6           0       -2.460842    1.420152    0.000000
      6          6           0       -3.678622    0.731144    0.000000
      7          6           0       -3.698705   -0.654801    0.000000
      8          6           0       -2.491885   -1.350834    0.000000
      9          6           0       -0.004093   -1.445663    0.000000
     10          6           0        0.000000    1.428854    0.000000
     11          6           0        1.257843   -0.680525    0.000000
     12          6           0        1.238733    0.725665    0.000000
     13          6           0       -1.265735   -0.673405    0.000000
     14          6           0       -1.237583    0.737006    0.000000
     15          1           0        2.474547   -2.455426    0.000000
     16          1           0        4.633495   -1.234546    0.000000
     17          1           0        4.613381    1.250278    0.000000
     18          1           0        2.476919    2.476866    0.000000
     19          1           0        0.005165    2.510094    0.000000
     20          1           0       -2.459166    2.502701    0.000000
     21          1           0       -4.604007    1.290032    0.000000
     22          1           0       -4.635887   -1.191466    0.000000
     23          1           0       -2.493849   -2.434101    0.000000
     24          1           0       -0.001397   -2.144049    0.857660
     25          1           0       -0.001397   -2.144049   -0.857660
 ---------------------------------------------------------------------

 SCF Done:  E(RM062X) =  -539.759979543     A.U. after   15 cycles

 Excitation energies and oscillator strengths:

 Excited State   1:      Singlet-A'     2.8185 eV  439.90 nm  f=0.0288  <S**2>=0.000
      47 -> 48         0.70422
 This state for optimization and/or second-order correction.
 Total Energy, E(TD-HF/TD-DFT) =  -539.656403042
 Copying the excited state density for this state as the 1-particle RhoCI density.

 The electronic state is 1-A'.
 Alpha  occ. eigenvalues --  -10.77648 -10.73267 -10.73122 -10.72478 -10.72361
 Alpha  occ. eigenvalues --  -10.71432 -10.71294 -10.71141 -10.70956 -10.70884
 Alpha  occ. eigenvalues --  -10.70003 -10.69938 -10.69659 -10.69576  -1.16489
 Alpha  occ. eigenvalues --   -1.12495  -1.06944  -1.05806  -1.01314  -1.00242
 Alpha  occ. eigenvalues --   -0.95772  -0.91074  -0.86424  -0.85918  -0.83830
 Alpha  occ. eigenvalues --   -0.78406  -0.76072  -0.74422  -0.69545  -0.69258
 Alpha  occ. eigenvalues --   -0.68516  -0.68208  -0.68089  -0.64762  -0.64301
 Alpha  occ. eigenvalues --   -0.63124  -0.61867  -0.59973  -0.59679  -0.59083
 Alpha  occ. eigenvalues --   -0.56921  -0.55204  -0.54866  -0.52432  -0.46666
 Alpha  occ. eigenvalues --   -0.46059  -0.44460
 Alpha virt. eigenvalues --   -0.26071  -0.14674  -0.14095  -0.12770  -0.11182
 Alpha virt. eigenvalues --   -0.10092  -0.09230  -0.07983  -0.07960  -0.07477
 Alpha virt. eigenvalues --   -0.07210  -0.07149  -0.05641  -0.05584  -0.05336

 Mulliken charges:
               1
     1  C    0.096482
     2  C   -0.407661
     3  C   -0.440775
     4  C    0.023550
     5  C    0.028853
     6  C   -0.439520
     7  C   -0.405889
     8  C    0.090362
     9  C   -0.315564
    10  C    0.102868
    11  C   -0.637951
    12  C    0.659709
    13  C   -0.642974
    14  C    0.667899
    15  H    0.236569
    16  H    0.255884
    17  H    0.248545
    18  H    0.221507
    19  H    0.190176
    20  H    0.222472
    21  H    0.249445
    22  H    0.257012
    23  H    0.237213
    24  H    0.250894
    25  H    0.250894
 Sum of Mulliken charges =   1.00000

 Dipole moment (field-independent basis, Debye):
    X=             -0.1392    Y=              0.1816    Z=              0.0000  Tot=              0.2288
 Quadrupole moment (field-independent basis, Debye-Ang):
   XX=            -31.1559   YY=            -56.2506   ZZ=            -84.1401
   XY=             -0.1767   XZ=              0.0000   YZ=             -0.0000

 Normal termination of Gaussian 16 at Tue Aug  2 11:05:49 2022.
