 Gaussian 16, Revision C.01,
 Gaussian 16:  ES64L-G16RevC.01  3-Jul-2019

 ---------------------------------------------------------------
 #n M062X/6-311++G(d,p) TD(NStates=1) EmpiricalDispersion=GD3 SP
 ---------------------------------------------------------------

 ------
 SP_-50
 ------
 Symbolic Z-matrix:
 Charge =  1 Multiplicity = 1

                         Standard orientation:
 ---------------------------------------------------------------------
 Center     Atomic      Atomic             Coordinates (Angstroms)
 Number     Number       Type             X           Y           Z
 ---------------------------------------------------------------------
      1          6           0        0.022891    2.847864    0.000000
      2          6           0       -1.149434    3.595338    0.000000
      3          6           0       -2.356150    2.921932    0.000000
      4          6           0       -2.389221    1.503875    0.000000
      5          6           0       -0.083438   -2.849469    0.000000
      6          6           0        1.093841   -3.587816    0.000000
      7          6           0        2.324162   -2.941623    0.000000
      8          6           0        2.368847   -1.549900    0.000000
      9          6           0        1.278515    0.688857    0.000000
     10          6           0       -1.252329   -0.688808    0.000000
     11          6           0        0.000000    1.426798    0.000000
     12          6           0       -1.222756    0.741710    0.000000
     13          6           0        1.197695   -0.795005    0.000000
     14          6           0       -0.059779   -1.443197    0.000000
     15          1           0        0.984373    3.347182    0.000000
     16          1           0       -1.114060    4.674204    0.000000
     17          1           0       -3.290229    3.466316    0.000000
     18          1           0       -3.349655    1.003909    0.000000
     19          1           0       -2.206961   -1.196213    0.000000
     20          1           0       -1.039312   -3.357190    0.000000
     21          1           0        1.047651   -4.667639    0.000000
     22          1           0        3.241283   -3.512268    0.000000
     23          1           0        3.325747   -1.042466    0.000000
     24          1           0        1.882055    1.030418    0.859310
     25          1           0        1.882055    1.030418   -0.859310
 ---------------------------------------------------------------------

 SCF Done:  E(RM062X) =  -539.759221472     A.U. after   15 cycles

 Excitation energies and oscillator strengths:

 Excited State   1:      Singlet-A'     2.7921 eV  444.05 nm  f=0.0263  <S**2>=0.000
      47 -> 48         0.70395
 This state for optimization and/or second-order correction.
 Total Energy, E(TD-HF/TD-DFT) =  -539.656612479
 Copying the excited state density for this state as the 1-particle RhoCI density.

 The electronic state is 1-A'.
 Alpha  occ. eigenvalues --  -10.77650 -10.73448 -10.73015 -10.72602 -10.72252
 Alpha  occ. eigenvalues --  -10.71570 -10.71398 -10.71158 -10.70976 -10.70626
 Alpha  occ. eigenvalues --  -10.70070 -10.69874 -10.69751 -10.69504  -1.16465
 Alpha  occ. eigenvalues --   -1.12471  -1.06944  -1.05761  -1.01309  -1.00230
 Alpha  occ. eigenvalues --   -0.95746  -0.91055  -0.86423  -0.85903  -0.83812
 Alpha  occ. eigenvalues --   -0.78391  -0.76052  -0.74410  -0.69597  -0.69260
 Alpha  occ. eigenvalues --   -0.68473  -0.68173  -0.68098  -0.64846  -0.64271
 Alpha  occ. eigenvalues --   -0.63009  -0.61825  -0.60116  -0.59566  -0.59103
 Alpha  occ. eigenvalues --   -0.56908  -0.55229  -0.54790  -0.52437  -0.46750
 Alpha  occ. eigenvalues --   -0.46077  -0.44362
 Alpha virt. eigenvalues --   -0.26088  -0.14669  -0.14094  -0.12771  -0.11181
 Alpha virt. eigenvalues --   -0.10088  -0.09235  -0.07979  -0.07962  -0.07477
 Alpha virt. eigenvalues --   -0.07205  -0.07144  -0.05643  -0.05581  -0.05336

 Mulliken charges:
               1
     1  C    0.102065
     2  C   -0.409468
     3  C   -0.441938
     4  C    0.008836
     5  C    0.023359
     6  C   -0.437673
     7  C   -0.404621
     8  C    0.084250
     9  C   -0.332359
    10  C    0.093480
    11  C   -0.627844
    12  C    0.672924
    13  C   -0.645782
    14  C    0.695128
    15  H    0.236297
    16  H    0.254628
    17  H    0.247562
    18  H    0.220625
    19  H    0.190228
    20  H    0.223426
    21  H    0.250255
    22  H    0.258016
    23  H    0.238231
    24  H    0.250188
    25  H    0.250188
 Sum of Mulliken charges =   1.00000

 Dipole moment (field-independent basis, Debye):
    X=              0.0351    Y=             -0.4573    Z=             -0.0000  Tot=              0.4586
 Quadrupole moment (field-independent basis, Debye-Ang):
   XX=            -50.8632   YY=            -36.5057   ZZ=            -84.1399
   XY=            -10.3321   XZ=             -0.0000   YZ=             -0.0000

 Normal termination of Gaussian 16 at Tue Aug  2 11:39:08 2022.
