 Gaussian 16, Revision C.01,
 Gaussian 16:  ES64L-G16RevC.01  3-Jul-2019

 ---------------------------------------------------------------
 #n M062X/6-311++G(d,p) TD(NStates=1) EmpiricalDispersion=GD3 SP
 ---------------------------------------------------------------

 ------
 SP_150
 ------
 Symbolic Z-matrix:
 Charge =  1 Multiplicity = 1

                         Standard orientation:
 ---------------------------------------------------------------------
 Center     Atomic      Atomic             Coordinates (Angstroms)
 Number     Number       Type             X           Y           Z
 ---------------------------------------------------------------------
      1          6           0        0.099552   -2.803799    0.000000
      2          6           0        1.328635   -3.464770    0.000000
      3          6           0        2.538482   -2.756373    0.000000
      4          6           0        2.525201   -1.409800    0.000000
      5          6           0       -0.064821    2.781062    0.000000
      6          6           0       -1.328900    3.515167    0.000000
      7          6           0       -2.529477    2.853569    0.000000
      8          6           0       -2.471083    1.467637    0.000000
      9          6           0       -1.257694   -0.728779    0.000000
     10          6           0        1.262362    0.674199    0.000000
     11          6           0        0.058256   -1.452576    0.000000
     12          6           0        1.283881   -0.707302    0.000000
     13          6           0       -1.205532    0.732848    0.000000
     14          6           0        0.000000    1.408599    0.000000
     15          1           0       -0.815416   -3.383271    0.000000
     16          1           0        1.345598   -4.545869    0.000000
     17          1           0        3.473164   -3.299746    0.000000
     18          1           0        3.441077   -0.833762    0.000000
     19          1           0        2.185288    1.237198    0.000000
     20          1           0        0.847804    3.365400    0.000000
     21          1           0       -1.283683    4.596683    0.000000
     22          1           0       -3.471493    3.378444    0.000000
     23          1           0       -3.382089    0.879849    0.000000
     24          1           0       -1.886712   -1.026511    0.859585
     25          1           0       -1.886712   -1.026511   -0.859585
 ---------------------------------------------------------------------

 SCF Done:  E(RM062X) =  -539.744506031     A.U. after   16 cycles

 Excitation energies and oscillator strengths:

 Excited State   1:      Singlet-A'     2.5176 eV  492.48 nm  f=0.0158  <S**2>=0.000
      47 -> 48         0.70340
 This state for optimization and/or second-order correction.
 Total Energy, E(TD-HF/TD-DFT) =  -539.651987688
 Copying the excited state density for this state as the 1-particle RhoCI density.

 The electronic state is 1-A'.
 Alpha  occ. eigenvalues --  -10.77457 -10.74061 -10.73024 -10.72627 -10.72359
 Alpha  occ. eigenvalues --  -10.72107 -10.71647 -10.70991 -10.70494 -10.70360
 Alpha  occ. eigenvalues --  -10.70105 -10.69625 -10.69538 -10.69140  -1.16690
 Alpha  occ. eigenvalues --   -1.12486  -1.06933  -1.06043  -1.01251  -1.00695
 Alpha  occ. eigenvalues --   -0.95321  -0.90984  -0.86472  -0.85879  -0.83727
 Alpha  occ. eigenvalues --   -0.78244  -0.76286  -0.74317  -0.70018  -0.69398
 Alpha  occ. eigenvalues --   -0.68104  -0.68074  -0.67944  -0.65713  -0.64218
 Alpha  occ. eigenvalues --   -0.62525  -0.61248  -0.60780  -0.59214  -0.58967
 Alpha  occ. eigenvalues --   -0.56989  -0.55257  -0.54246  -0.52441  -0.47976
 Alpha  occ. eigenvalues --   -0.46157  -0.43143
 Alpha virt. eigenvalues --   -0.26126  -0.14665  -0.14046  -0.12740  -0.11209
 Alpha virt. eigenvalues --   -0.10106  -0.09296  -0.07932  -0.07869  -0.07496
 Alpha virt. eigenvalues --   -0.07226  -0.07120  -0.05650  -0.05565  -0.05381

 Mulliken charges:
               1
     1  C    0.062686
     2  C   -0.398508
     3  C   -0.427231
     4  C    0.036640
     5  C   -0.015646
     6  C   -0.445195
     7  C   -0.418074
     8  C    0.131036
     9  C   -0.351605
    10  C    0.071855
    11  C   -0.663338
    12  C    0.724498
    13  C   -0.574900
    14  C    0.647639
    15  H    0.241426
    16  H    0.262949
    17  H    0.254230
    18  H    0.227661
    19  H    0.188264
    20  H    0.217004
    21  H    0.243599
    22  H    0.249622
    23  H    0.234031
    24  H    0.250679
    25  H    0.250679
 Sum of Mulliken charges =   1.00000

 Dipole moment (field-independent basis, Debye):
    X=              0.9832    Y=             -1.3466    Z=              0.0000  Tot=              1.6673
 Quadrupole moment (field-independent basis, Debye-Ang):
   XX=            -48.8041   YY=            -38.3515   ZZ=            -84.1163
   XY=            -11.6340   XZ=              0.0000   YZ=              0.0000

 Normal termination of Gaussian 16 at Tue Aug  2 13:25:36 2022.
