 Gaussian 16, Revision C.01,
 Gaussian 16:  ES64L-G16RevC.01  3-Jul-2019

 ---------------------------------------------------------------
 #n M062X/6-311++G(d,p) TD(NStates=1) EmpiricalDispersion=GD3 SP
 ---------------------------------------------------------------

 -----
 SP_25
 -----
 Symbolic Z-matrix:
 Charge =  1 Multiplicity = 1

                         Standard orientation:
 ---------------------------------------------------------------------
 Center     Atomic      Atomic             Coordinates (Angstroms)
 Number     Number       Type             X           Y           Z
 ---------------------------------------------------------------------
      1          6           0        2.495669   -1.349631    0.000000
      2          6           0        3.700594   -0.654112    0.000000
      3          6           0        3.679812    0.733130    0.000000
      4          6           0        2.461042    1.420539    0.000000
      5          6           0       -2.465254    1.394644    0.000000
      6          6           0       -3.688114    0.695006    0.000000
      7          6           0       -3.702812   -0.689714    0.000000
      8          6           0       -2.490546   -1.370935    0.000000
      9          6           0        0.004195   -1.454465    0.000000
     10          6           0        0.000000    1.429252    0.000000
     11          6           0        1.266028   -0.673511    0.000000
     12          6           0        1.236785    0.736394    0.000000
     13          6           0       -1.258150   -0.680623    0.000000
     14          6           0       -1.237932    0.725072    0.000000
     15          1           0        2.498228   -2.432796    0.000000
     16          1           0        4.638170   -1.189979    0.000000
     17          1           0        4.604598    1.292512    0.000000
     18          1           0        2.458571    2.502985    0.000000
     19          1           0       -0.005159    2.510292    0.000000
     20          1           0       -2.476314    2.477178    0.000000
     21          1           0       -4.613991    1.252794    0.000000
     22          1           0       -4.635811   -1.233037    0.000000
     23          1           0       -2.478968   -2.454136    0.000000
     24          1           0        0.001391   -2.146051    0.859860
     25          1           0        0.001391   -2.146051   -0.859860
 ---------------------------------------------------------------------

 SCF Done:  E(RM062X) =  -539.760136947     A.U. after   15 cycles

 Excitation energies and oscillator strengths:

 Excited State   1:      Singlet-A'     2.8193 eV  439.77 nm  f=0.0283  <S**2>=0.000
      47 -> 48         0.70422
 This state for optimization and/or second-order correction.
 Total Energy, E(TD-HF/TD-DFT) =  -539.656529679
 Copying the excited state density for this state as the 1-particle RhoCI density.

 The electronic state is 1-A'.
 Alpha  occ. eigenvalues --  -10.77666 -10.73319 -10.73174 -10.72495 -10.72378
 Alpha  occ. eigenvalues --  -10.71437 -10.71300 -10.71133 -10.70983 -10.70876
 Alpha  occ. eigenvalues --  -10.70005 -10.69940 -10.69672 -10.69590  -1.16438
 Alpha  occ. eigenvalues --   -1.12461  -1.06945  -1.05723  -1.01313  -1.00182
 Alpha  occ. eigenvalues --   -0.95779  -0.91053  -0.86418  -0.85899  -0.83814
 Alpha  occ. eigenvalues --   -0.78397  -0.76024  -0.74416  -0.69568  -0.69245
 Alpha  occ. eigenvalues --   -0.68499  -0.68188  -0.68104  -0.64750  -0.64279
 Alpha  occ. eigenvalues --   -0.63048  -0.61862  -0.60027  -0.59660  -0.59095
 Alpha  occ. eigenvalues --   -0.56894  -0.55218  -0.54828  -0.52439  -0.46635
 Alpha  occ. eigenvalues --   -0.46059  -0.44489
 Alpha virt. eigenvalues --   -0.26091  -0.14668  -0.14098  -0.12774  -0.11179
 Alpha virt. eigenvalues --   -0.10085  -0.09230  -0.07983  -0.07971  -0.07476
 Alpha virt. eigenvalues --   -0.07203  -0.07145  -0.05643  -0.05581  -0.05332

 Mulliken charges:
               1
     1  C    0.090167
     2  C   -0.405902
     3  C   -0.439343
     4  C    0.015584
     5  C    0.010757
     6  C   -0.440815
     7  C   -0.407514
     8  C    0.095948
     9  C   -0.336665
    10  C    0.091678
    11  C   -0.638617
    12  C    0.692517
    13  C   -0.632413
    14  C    0.685289
    15  H    0.237661
    16  H    0.256851
    17  H    0.249322
    18  H    0.222483
    19  H    0.190416
    20  H    0.221555
    21  H    0.248425
    22  H    0.255717
    23  H    0.237018
    24  H    0.249940
    25  H    0.249940
 Sum of Mulliken charges =   1.00000

 Dipole moment (field-independent basis, Debye):
    X=              0.1393    Y=              0.1888    Z=             -0.0000  Tot=              0.2346
 Quadrupole moment (field-independent basis, Debye-Ang):
   XX=            -31.1095   YY=            -56.2636   ZZ=            -84.1419
   XY=              0.1768   XZ=              0.0000   YZ=             -0.0000

 Normal termination of Gaussian 16 at Tue Aug  2 12:20:33 2022.
