 Gaussian 16, Revision C.01,
 Gaussian 16:  ES64L-G16RevC.01  3-Jul-2019

 ---------------------------------------------------------------
 #n M062X/6-311++G(d,p) TD(NStates=1) EmpiricalDispersion=GD3 SP
 ---------------------------------------------------------------

 ------
 SP_125
 ------
 Symbolic Z-matrix:
 Charge =  1 Multiplicity = 1

                         Standard orientation:
 ---------------------------------------------------------------------
 Center     Atomic      Atomic             Coordinates (Angstroms)
 Number     Number       Type             X           Y           Z
 ---------------------------------------------------------------------
      1          6           0       -2.372372   -1.555398    0.000000
      2          6           0       -2.330316   -2.944711    0.000000
      3          6           0       -1.098642   -3.588654    0.000000
      4          6           0        0.081285   -2.845358    0.000000
      5          6           0        2.394827    1.504366    0.000000
      6          6           0        2.363374    2.917750    0.000000
      7          6           0        1.153710    3.591537    0.000000
      8          6           0       -0.019081    2.848143    0.000000
      9          6           0       -1.287638    0.692785    0.000000
     10          6           0        1.255079   -0.684579    0.000000
     11          6           0       -1.196443   -0.794296    0.000000
     12          6           0        0.059388   -1.439709    0.000000
     13          6           0        0.000000    1.428932    0.000000
     14          6           0        1.223819    0.742382    0.000000
     15          1           0       -3.327992   -1.045722    0.000000
     16          1           0       -3.247055   -3.515629    0.000000
     17          1           0       -1.048798   -4.668044    0.000000
     18          1           0        1.036149   -3.354867    0.000000
     19          1           0        2.208877   -1.193072    0.000000
     20          1           0        3.353298    1.001079    0.000000
     21          1           0        3.296122    3.463683    0.000000
     22          1           0        1.119908    4.670513    0.000000
     23          1           0       -0.978588    3.350862    0.000000
     24          1           0       -1.886933    1.026027    0.861785
     25          1           0       -1.886933    1.026027   -0.861785
 ---------------------------------------------------------------------

 SCF Done:  E(RM062X) =  -539.759817618     A.U. after   15 cycles

 Excitation energies and oscillator strengths:

 Excited State   1:      Singlet-A'     2.8089 eV  441.40 nm  f=0.0270  <S**2>=0.000
      47 -> 48         0.70410
 This state for optimization and/or second-order correction.
 Total Energy, E(TD-HF/TD-DFT) =  -539.656592175
 Copying the excited state density for this state as the 1-particle RhoCI density.

 The electronic state is 1-A'.
 Alpha  occ. eigenvalues --  -10.77678 -10.73438 -10.73146 -10.72567 -10.72334
 Alpha  occ. eigenvalues --  -10.71509 -10.71256 -10.71235 -10.71007 -10.70741
 Alpha  occ. eigenvalues --  -10.70040 -10.69908 -10.69725 -10.69562  -1.16399
 Alpha  occ. eigenvalues --   -1.12433  -1.06945  -1.05655  -1.01310  -1.00142
 Alpha  occ. eigenvalues --   -0.95773  -0.91034  -0.86413  -0.85882  -0.83798
 Alpha  occ. eigenvalues --   -0.78386  -0.75989  -0.74409  -0.69601  -0.69240
 Alpha  occ. eigenvalues --   -0.68472  -0.68162  -0.68118  -0.64774  -0.64254
 Alpha  occ. eigenvalues --   -0.62962  -0.61841  -0.60112  -0.59607  -0.59109
 Alpha  occ. eigenvalues --   -0.56874  -0.55234  -0.54777  -0.52444  -0.46651
 Alpha  occ. eigenvalues --   -0.46068  -0.44465
 Alpha virt. eigenvalues --   -0.26109  -0.14664  -0.14098  -0.12776  -0.11176
 Alpha virt. eigenvalues --   -0.10080  -0.09232  -0.07980  -0.07977  -0.07475
 Alpha virt. eigenvalues --   -0.07197  -0.07140  -0.05646  -0.05578  -0.05330

 Mulliken charges:
               1
     1  C    0.085030
     2  C   -0.404391
     3  C   -0.438235
     4  C    0.007418
     5  C   -0.001263
     6  C   -0.441500
     7  C   -0.407456
     8  C    0.096082
     9  C   -0.354946
    10  C    0.080444
    11  C   -0.635436
    12  C    0.715203
    13  C   -0.621412
    14  C    0.702214
    15  H    0.238343
    16  H    0.257286
    17  H    0.249672
    18  H    0.222981
    19  H    0.190581
    20  H    0.221184
    21  H    0.247880
    22  H    0.255016
    23  H    0.237054
    24  H    0.249125
    25  H    0.249125
 Sum of Mulliken charges =   1.00000

 Dipole moment (field-independent basis, Debye):
    X=              0.0386    Y=             -0.3385    Z=              0.0000  Tot=              0.3407
 Quadrupole moment (field-independent basis, Debye-Ang):
   XX=            -50.7906   YY=            -36.5496   ZZ=            -84.1428
   XY=             10.4043   XZ=              0.0000   YZ=             -0.0000

 Normal termination of Gaussian 16 at Tue Aug  2 13:21:16 2022.
