 Gaussian 16, Revision C.01,
 Gaussian 16:  ES64L-G16RevC.01  3-Jul-2019

 ---------------------------------------------------------------
 #n M062X/6-311++G(d,p) TD(NStates=1) EmpiricalDispersion=GD3 SP
 ---------------------------------------------------------------

 ------
 SP_100
 ------
 Symbolic Z-matrix:
 Charge =  1 Multiplicity = 1

                         Standard orientation:
 ---------------------------------------------------------------------
 Center     Atomic      Atomic             Coordinates (Angstroms)
 Number     Number       Type             X           Y           Z
 ---------------------------------------------------------------------
      1          6           0        0.018401    2.848852    0.000000
      2          6           0       -1.154045    3.591902    0.000000
      3          6           0       -2.363922    2.917824    0.000000
      4          6           0       -2.394924    1.504409    0.000000
      5          6           0       -0.081395   -2.845435    0.000000
      6          6           0        1.098288   -3.589156    0.000000
      7          6           0        2.330339   -2.945231    0.000000
      8          6           0        2.372527   -1.556397    0.000000
      9          6           0        1.289688    0.693618    0.000000
     10          6           0       -1.255183   -0.684596    0.000000
     11          6           0        0.000000    1.429023    0.000000
     12          6           0       -1.223589    0.742306    0.000000
     13          6           0        1.196483   -0.794354    0.000000
     14          6           0       -0.059376   -1.439449    0.000000
     15          1           0        0.977822    3.351678    0.000000
     16          1           0       -1.120452    4.670872    0.000000
     17          1           0       -3.296703    3.463578    0.000000
     18          1           0       -3.353286    1.000970    0.000000
     19          1           0       -2.208944   -1.193053    0.000000
     20          1           0       -1.036338   -3.354743    0.000000
     21          1           0        1.048248   -4.668472    0.000000
     22          1           0        3.246941   -3.516344    0.000000
     23          1           0        3.328203   -1.046878    0.000000
     24          1           0        1.887382    1.026250    0.862335
     25          1           0        1.887382    1.026250   -0.862335
 ---------------------------------------------------------------------

 SCF Done:  E(RM062X) =  -539.759806969     A.U. after   15 cycles

 Excitation energies and oscillator strengths:

 Excited State   1:      Singlet-A'     2.8089 eV  441.39 nm  f=0.0269  <S**2>=0.000
      47 -> 48         0.70410
 This state for optimization and/or second-order correction.
 Total Energy, E(TD-HF/TD-DFT) =  -539.656580073
 Copying the excited state density for this state as the 1-particle RhoCI density.

 The electronic state is 1-A'.
 Alpha  occ. eigenvalues --  -10.77682 -10.73451 -10.73160 -10.72572 -10.72338
 Alpha  occ. eigenvalues --  -10.71510 -10.71254 -10.71237 -10.71015 -10.70739
 Alpha  occ. eigenvalues --  -10.70040 -10.69908 -10.69728 -10.69565  -1.16386
 Alpha  occ. eigenvalues --   -1.12424  -1.06946  -1.05634  -1.01310  -1.00127
 Alpha  occ. eigenvalues --   -0.95775  -0.91029  -0.86412  -0.85878  -0.83794
 Alpha  occ. eigenvalues --   -0.78384  -0.75977  -0.74408  -0.69607  -0.69237
 Alpha  occ. eigenvalues --   -0.68467  -0.68157  -0.68122  -0.64770  -0.64249
 Alpha  occ. eigenvalues --   -0.62944  -0.61838  -0.60125  -0.59603  -0.59111
 Alpha  occ. eigenvalues --   -0.56868  -0.55236  -0.54768  -0.52446  -0.46644
 Alpha  occ. eigenvalues --   -0.46068  -0.44472
 Alpha virt. eigenvalues --   -0.26114  -0.14663  -0.14099  -0.12777  -0.11176
 Alpha virt. eigenvalues --   -0.10079  -0.09232  -0.07980  -0.07980  -0.07474
 Alpha virt. eigenvalues --   -0.07195  -0.07139  -0.05647  -0.05577  -0.05329

 Mulliken charges:
               1
     1  C    0.095229
     2  C   -0.406984
     3  C   -0.441529
     4  C   -0.003757
     5  C    0.004604
     6  C   -0.438188
     7  C   -0.404095
     8  C    0.084138
     9  C   -0.359930
    10  C    0.077255
    11  C   -0.618522
    12  C    0.707139
    13  C   -0.633220
    14  C    0.719908
    15  H    0.237140
    16  H    0.254979
    17  H    0.247855
    18  H    0.221212
    19  H    0.190644
    20  H    0.222992
    21  H    0.249642
    22  H    0.257251
    23  H    0.238435
    24  H    0.248901
    25  H    0.248901
 Sum of Mulliken charges =   1.00000

 Dipole moment (field-independent basis, Debye):
    X=             -0.0401    Y=             -0.3393    Z=              0.0000  Tot=              0.3417
 Quadrupole moment (field-independent basis, Debye-Ang):
   XX=            -50.7910   YY=            -36.5413   ZZ=            -84.1433
   XY=            -10.4099   XZ=              0.0000   YZ=              0.0000

 Normal termination of Gaussian 16 at Tue Aug  2 13:10:10 2022.
