 Gaussian 16, Revision C.01,
 Gaussian 16:  ES64L-G16RevC.01  3-Jul-2019

 ---------------------------------------------------------------
 #n M062X/6-311++G(d,p) TD(NStates=1) EmpiricalDispersion=GD3 SP
 ---------------------------------------------------------------

 ------
 SP_150
 ------
 Symbolic Z-matrix:
 Charge =  1 Multiplicity = 1

                         Standard orientation:
 ---------------------------------------------------------------------
 Center     Atomic      Atomic             Coordinates (Angstroms)
 Number     Number       Type             X           Y           Z
 ---------------------------------------------------------------------
      1          6           0        0.099810   -2.819741    0.000000
      2          6           0        1.319015   -3.492437    0.000000
      3          6           0        2.518716   -2.778628    0.000000
      4          6           0        2.500030   -1.408198    0.000000
      5          6           0       -0.054433    2.804491    0.000000
      6          6           0       -1.298645    3.524949    0.000000
      7          6           0       -2.500825    2.851792    0.000000
      8          6           0       -2.458081    1.464870    0.000000
      9          6           0       -1.259869   -0.735697    0.000000
     10          6           0        1.249284    0.696033    0.000000
     11          6           0        0.058338   -1.443770    0.000000
     12          6           0        1.272635   -0.701654    0.000000
     13          6           0       -1.213634    0.737016    0.000000
     14          6           0        0.000000    1.419857    0.000000
     15          1           0       -0.823390   -3.385877    0.000000
     16          1           0        1.333896   -4.572932    0.000000
     17          1           0        3.460353   -3.308827    0.000000
     18          1           0        3.423398   -0.844041    0.000000
     19          1           0        2.175482    1.253370    0.000000
     20          1           0        0.865692    3.375783    0.000000
     21          1           0       -1.267400    4.605929    0.000000
     22          1           0       -3.441778    3.379714    0.000000
     23          1           0       -3.377413    0.891239    0.000000
     24          1           0       -1.871440   -1.053826    0.860960
     25          1           0       -1.871440   -1.053826   -0.860960
 ---------------------------------------------------------------------

 SCF Done:  E(RM062X) =  -539.754963452     A.U. after   15 cycles

 Excitation energies and oscillator strengths:

 Excited State   1:      Singlet-A'     2.6855 eV  461.67 nm  f=0.0202  <S**2>=0.000
      47 -> 48         0.70356
 This state for optimization and/or second-order correction.
 Total Energy, E(TD-HF/TD-DFT) =  -539.656271716
 Copying the excited state density for this state as the 1-particle RhoCI density.

 The electronic state is 1-A'.
 Alpha  occ. eigenvalues --  -10.77605 -10.73768 -10.72819 -10.72758 -10.72006
 Alpha  occ. eigenvalues --  -10.71930 -10.71825 -10.71000 -10.70872 -10.70203
 Alpha  occ. eigenvalues --  -10.70134 -10.69920 -10.69745 -10.69352  -1.16496
 Alpha  occ. eigenvalues --   -1.12451  -1.06939  -1.05786  -1.01289  -1.00346
 Alpha  occ. eigenvalues --   -0.95604  -0.91022  -0.86434  -0.85883  -0.83774
 Alpha  occ. eigenvalues --   -0.78340  -0.76096  -0.74371  -0.69759  -0.69304
 Alpha  occ. eigenvalues --   -0.68330  -0.68102  -0.68073  -0.65178  -0.64227
 Alpha  occ. eigenvalues --   -0.62763  -0.61622  -0.60421  -0.59306  -0.59158
 Alpha  occ. eigenvalues --   -0.56922  -0.55263  -0.54575  -0.52443  -0.47186
 Alpha  occ. eigenvalues --   -0.46120  -0.43907
 Alpha virt. eigenvalues --   -0.26113  -0.14664  -0.14082  -0.12765  -0.11187
 Alpha virt. eigenvalues --   -0.10089  -0.09254  -0.07964  -0.07940  -0.07482
 Alpha virt. eigenvalues --   -0.07207  -0.07135  -0.05647  -0.05574  -0.05347

 Mulliken charges:
               1
     1  C    0.073520
     2  C   -0.401221
     3  C   -0.433180
     4  C    0.021537
     5  C   -0.009337
     6  C   -0.444216
     7  C   -0.412224
     8  C    0.112470
     9  C   -0.352655
    10  C    0.078356
    11  C   -0.650494
    12  C    0.722294
    13  C   -0.600423
    14  C    0.676670
    15  H    0.239901
    16  H    0.260150
    17  H    0.251946
    18  H    0.225287
    19  H    0.189823
    20  H    0.219024
    21  H    0.245705
    22  H    0.252258
    23  H    0.235463
    24  H    0.249672
    25  H    0.249672
 Sum of Mulliken charges =   1.00000

 Dipole moment (field-independent basis, Debye):
    X=              0.6541    Y=             -0.7474    Z=             -0.0000  Tot=              0.9932
 Quadrupole moment (field-independent basis, Debye-Ang):
   XX=            -49.2143   YY=            -38.0675   ZZ=            -84.1342
   XY=            -11.3602   XZ=              0.0000   YZ=              0.0000

 Normal termination of Gaussian 16 at Tue Aug  2 13:31:16 2022.
