 Gaussian 16, Revision C.01,
 Gaussian 16:  ES64L-G16RevC.01  3-Jul-2019

 ---------------------------------------------------------------
 #n M062X/6-311++G(d,p) TD(NStates=1) EmpiricalDispersion=GD3 SP
 ---------------------------------------------------------------

 -----
 SP_25
 -----
 Symbolic Z-matrix:
 Charge =  1 Multiplicity = 1

                         Standard orientation:
 ---------------------------------------------------------------------
 Center     Atomic      Atomic             Coordinates (Angstroms)
 Number     Number       Type             X           Y           Z
 ---------------------------------------------------------------------
      1          6           0        0.021626    2.856367    0.000000
      2          6           0       -1.145327    3.607450    0.000000
      3          6           0       -2.348895    2.930944    0.000000
      4          6           0       -2.379278    1.503120    0.000000
      5          6           0       -0.088946   -2.858862    0.000000
      6          6           0        1.079905   -3.592749    0.000000
      7          6           0        2.312412   -2.942225    0.000000
      8          6           0        2.363999   -1.551916    0.000000
      9          6           0        1.285568    0.694371    0.000000
     10          6           0       -1.248076   -0.697740    0.000000
     11          6           0        0.000000    1.423547    0.000000
     12          6           0       -1.217595    0.739127    0.000000
     13          6           0        1.200854   -0.797286    0.000000
     14          6           0       -0.060243   -1.446956    0.000000
     15          1           0        0.985902    3.350330    0.000000
     16          1           0       -1.109585    4.686014    0.000000
     17          1           0       -3.286098    3.469867    0.000000
     18          1           0       -3.342176    1.007778    0.000000
     19          1           0       -2.203861   -1.202546    0.000000
     20          1           0       -1.047827   -3.360437    0.000000
     21          1           0        1.038541   -4.672493    0.000000
     22          1           0        3.228544   -3.514804    0.000000
     23          1           0        3.324137   -1.050959    0.000000
     24          1           0        1.878198    1.042046    0.861510
     25          1           0        1.878198    1.042046   -0.861510
 ---------------------------------------------------------------------

 SCF Done:  E(RM062X) =  -539.757557397     A.U. after   15 cycles

 Excitation energies and oscillator strengths:

 Excited State   1:      Singlet-A'     2.7443 eV  451.79 nm  f=0.0228  <S**2>=0.000
      47 -> 48         0.70371
 This state for optimization and/or second-order correction.
 Total Energy, E(TD-HF/TD-DFT) =  -539.656706828
 Copying the excited state density for this state as the 1-particle RhoCI density.

 The electronic state is 1-A'.
 Alpha  occ. eigenvalues --  -10.77645 -10.73643 -10.72919 -10.72725 -10.72142
 Alpha  occ. eigenvalues --  -10.71703 -10.71656 -10.71020 -10.71006 -10.70371
 Alpha  occ. eigenvalues --  -10.70138 -10.69844 -10.69810 -10.69437  -1.16442
 Alpha  occ. eigenvalues --   -1.12439  -1.06942  -1.05712  -1.01300  -1.00237
 Alpha  occ. eigenvalues --   -0.95691  -0.91028  -0.86423  -0.85882  -0.83786
 Alpha  occ. eigenvalues --   -0.78364  -0.76038  -0.74389  -0.69681  -0.69271
 Alpha  occ. eigenvalues --   -0.68400  -0.68117  -0.68111  -0.64983  -0.64235
 Alpha  occ. eigenvalues --   -0.62853  -0.61734  -0.60286  -0.59438  -0.59133
 Alpha  occ. eigenvalues --   -0.56897  -0.55252  -0.54675  -0.52444  -0.46921
 Alpha  occ. eigenvalues --   -0.46102  -0.44175
 Alpha virt. eigenvalues --   -0.26112  -0.14664  -0.14091  -0.12772  -0.11181
 Alpha virt. eigenvalues --   -0.10084  -0.09243  -0.07972  -0.07960  -0.07478
 Alpha virt. eigenvalues --   -0.07201  -0.07138  -0.05647  -0.05576  -0.05338

 Mulliken charges:
               1
     1  C    0.105258
     2  C   -0.410034
     3  C   -0.443360
     4  C   -0.006912
     5  C    0.014827
     6  C   -0.435281
     7  C   -0.402495
     8  C    0.077528
     9  C   -0.354914
    10  C    0.078863
    11  C   -0.608883
    12  C    0.689688
    13  C   -0.644757
    14  C    0.721972
    15  H    0.236112
    16  H    0.253339
    17  H    0.246564
    18  H    0.219883
    19  H    0.190239
    20  H    0.224360
    21  H    0.251026
    22  H    0.259000
    23  H    0.239313
    24  H    0.249333
    25  H    0.249333
 Sum of Mulliken charges =   1.00000

 Dipole moment (field-independent basis, Debye):
    X=              0.1631    Y=             -0.7053    Z=             -0.0000  Tot=              0.7240
 Quadrupole moment (field-independent basis, Debye-Ang):
   XX=            -51.0083   YY=            -36.3030   ZZ=            -84.1389
   XY=            -10.2700   XZ=             -0.0000   YZ=             -0.0000

 Normal termination of Gaussian 16 at Tue Aug  2 12:27:09 2022.
