 Gaussian 16, Revision C.01,
 Gaussian 16:  ES64L-G16RevC.01  3-Jul-2019

 ---------------------------------------------------------------
 #n M062X/6-311++G(d,p) TD(NStates=1) EmpiricalDispersion=GD3 SP
 ---------------------------------------------------------------

 ------
 SP_100
 ------
 Symbolic Z-matrix:
 Charge =  1 Multiplicity = 1

                         Standard orientation:
 ---------------------------------------------------------------------
 Center     Atomic      Atomic             Coordinates (Angstroms)
 Number     Number       Type             X           Y           Z
 ---------------------------------------------------------------------
      1          6           0       -2.369357   -1.552902    0.000000
      2          6           0       -2.324296   -2.943189    0.000000
      3          6           0       -1.092851   -3.589346    0.000000
      4          6           0        0.083703   -2.849743    0.000000
      5          6           0        2.389514    1.503926    0.000000
      6          6           0        2.357819    2.922079    0.000000
      7          6           0        1.150472    3.596376    0.000000
      8          6           0       -0.020832    2.849953    0.000000
      9          6           0       -1.284336    0.691971    0.000000
     10          6           0        1.252609   -0.688919    0.000000
     11          6           0       -1.197849   -0.795201    0.000000
     12          6           0        0.059699   -1.442456    0.000000
     13          6           0        0.000000    1.427030    0.000000
     14          6           0        1.222054    0.741421    0.000000
     15          1           0       -3.326415   -1.045924    0.000000
     16          1           0       -3.241014   -3.514405    0.000000
     17          1           0       -1.046091   -4.668947    0.000000
     18          1           0        1.039806   -3.356874    0.000000
     19          1           0        2.207122   -1.196229    0.000000
     20          1           0        3.349613    1.003490    0.000000
     21          1           0        3.292003    3.465913    0.000000
     22          1           0        1.115741    4.675223    0.000000
     23          1           0       -0.982049    3.349608    0.000000
     24          1           0       -1.883408    1.031073    0.860960
     25          1           0       -1.883408    1.031073   -0.860960
 ---------------------------------------------------------------------

 SCF Done:  E(RM062X) =  -539.759279519     A.U. after   15 cycles

 Excitation energies and oscillator strengths:

 Excited State   1:      Singlet-A'     2.7920 eV  444.07 nm  f=0.0259  <S**2>=0.000
      47 -> 48         0.70396
 This state for optimization and/or second-order correction.
 Total Energy, E(TD-HF/TD-DFT) =  -539.656675603
 Copying the excited state density for this state as the 1-particle RhoCI density.

 The electronic state is 1-A'.
 Alpha  occ. eigenvalues --  -10.77664 -10.73489 -10.73054 -10.72615 -10.72265
 Alpha  occ. eigenvalues --  -10.71573 -10.71391 -10.71162 -10.70997 -10.70619
 Alpha  occ. eigenvalues --  -10.70072 -10.69875 -10.69760 -10.69515  -1.16426
 Alpha  occ. eigenvalues --   -1.12446  -1.06944  -1.05698  -1.01308  -1.00186
 Alpha  occ. eigenvalues --   -0.95750  -0.91039  -0.86418  -0.85889  -0.83800
 Alpha  occ. eigenvalues --   -0.78384  -0.76017  -0.74406  -0.69613  -0.69251
 Alpha  occ. eigenvalues --   -0.68460  -0.68158  -0.68110  -0.64834  -0.64255
 Alpha  occ. eigenvalues --   -0.62957  -0.61819  -0.60148  -0.59560  -0.59111
 Alpha  occ. eigenvalues --   -0.56889  -0.55236  -0.54764  -0.52442  -0.46729
 Alpha  occ. eigenvalues --   -0.46078  -0.44381
 Alpha virt. eigenvalues --   -0.26103  -0.14665  -0.14096  -0.12774  -0.11178
 Alpha virt. eigenvalues --   -0.10083  -0.09235  -0.07979  -0.07970  -0.07476
 Alpha virt. eigenvalues --   -0.07200  -0.07141  -0.05645  -0.05578  -0.05333

 Mulliken charges:
               1
     1  C    0.083306
     2  C   -0.404128
     3  C   -0.437401
     4  C    0.013881
     5  C    0.000357
     6  C   -0.442105
     7  C   -0.408779
     8  C    0.100236
     9  C   -0.347933
    10  C    0.084412
    11  C   -0.641350
    12  C    0.711072
    13  C   -0.621133
    14  C    0.690844
    15  H    0.238536
    16  H    0.257906
    17  H    0.250164
    18  H    0.223429
    19  H    0.190413
    20  H    0.220704
    21  H    0.247477
    22  H    0.254506
    23  H    0.236607
    24  H    0.249489
    25  H    0.249489
 Sum of Mulliken charges =   1.00000

 Dipole moment (field-independent basis, Debye):
    X=             -0.0305    Y=             -0.4600    Z=              0.0000  Tot=              0.4610
 Quadrupole moment (field-independent basis, Debye-Ang):
   XX=            -50.8634   YY=            -36.4809   ZZ=            -84.1413
   XY=             10.3501   XZ=             -0.0000   YZ=             -0.0000

 Normal termination of Gaussian 16 at Tue Aug  2 13:04:36 2022.
