 Gaussian 16, Revision C.01,
 Gaussian 16:  ES64L-G16RevC.01  3-Jul-2019

 ---------------------------------------------------------------
 #n M062X/6-311++G(d,p) TD(NStates=1) EmpiricalDispersion=GD3 SP
 ---------------------------------------------------------------

 ----
 SP_0
 ----
 Symbolic Z-matrix:
 Charge =  1 Multiplicity = 1

                         Standard orientation:
 ---------------------------------------------------------------------
 Center     Atomic      Atomic             Coordinates (Angstroms)
 Number     Number       Type             X           Y           Z
 ---------------------------------------------------------------------
      1          6           0        0.022722    2.858872    0.000000
      2          6           0       -1.142389    3.612633    0.000000
      3          6           0       -2.343861    2.935315    0.000000
      4          6           0       -2.374061    1.502686    0.000000
      5          6           0       -0.091490   -2.863333    0.000000
      6          6           0        1.073759   -3.593935    0.000000
      7          6           0        2.306431   -2.941217    0.000000
      8          6           0        2.361158   -1.550425    0.000000
      9          6           0        1.284200    0.694623    0.000000
     10          6           0       -1.245727   -0.702125    0.000000
     11          6           0        0.000000    1.421724    0.000000
     12          6           0       -1.215599    0.738067    0.000000
     13          6           0        1.202306   -0.798274    0.000000
     14          6           0       -0.060547   -1.449459    0.000000
     15          1           0        0.988610    3.349872    0.000000
     16          1           0       -1.105927    4.691061    0.000000
     17          1           0       -3.282546    3.471971    0.000000
     18          1           0       -3.338466    1.010050    0.000000
     19          1           0       -2.202186   -1.205708    0.000000
     20          1           0       -1.051679   -3.362322    0.000000
     21          1           0        1.035283   -4.673834    0.000000
     22          1           0        3.222403   -3.514289    0.000000
     23          1           0        3.322777   -1.052330    0.000000
     24          1           0        1.875162    1.047315    0.861235
     25          1           0        1.875162    1.047315   -0.861235
 ---------------------------------------------------------------------

 SCF Done:  E(RM062X) =  -539.756366658     A.U. after   15 cycles

 Excitation energies and oscillator strengths:

 Excited State   1:      Singlet-A'     2.7159 eV  456.51 nm  f=0.0214  <S**2>=0.000
      47 -> 48         0.70362
 This state for optimization and/or second-order correction.
 Total Energy, E(TD-HF/TD-DFT) =  -539.656557876
 Copying the excited state density for this state as the 1-particle RhoCI density.

 The electronic state is 1-A'.
 Alpha  occ. eigenvalues --  -10.77627 -10.73706 -10.72839 -10.72773 -10.72075
 Alpha  occ. eigenvalues --  -10.71792 -10.71765 -10.71003 -10.70947 -10.70252
 Alpha  occ. eigenvalues --  -10.70171 -10.69882 -10.69778 -10.69394  -1.16468
 Alpha  occ. eigenvalues --   -1.12445  -1.06941  -1.05747  -1.01295  -1.00288
 Alpha  occ. eigenvalues --   -0.95650  -0.91025  -0.86428  -0.85883  -0.83781
 Alpha  occ. eigenvalues --   -0.78353  -0.76065  -0.74381  -0.69718  -0.69287
 Alpha  occ. eigenvalues --   -0.68367  -0.68106  -0.68096  -0.65077  -0.64231
 Alpha  occ. eigenvalues --   -0.62809  -0.61682  -0.60352  -0.59373  -0.59145
 Alpha  occ. eigenvalues --   -0.56909  -0.55258  -0.54629  -0.52444  -0.47048
 Alpha  occ. eigenvalues --   -0.46111  -0.44046
 Alpha virt. eigenvalues --   -0.26112  -0.14664  -0.14087  -0.12769  -0.11184
 Alpha virt. eigenvalues --   -0.10086  -0.09248  -0.07968  -0.07951  -0.07480
 Alpha virt. eigenvalues --   -0.07204  -0.07136  -0.05647  -0.05575  -0.05342

 Mulliken charges:
               1
     1  C    0.108714
     2  C   -0.411090
     3  C   -0.443833
     4  C   -0.008063
     5  C    0.018185
     6  C   -0.434246
     7  C   -0.401944
     8  C    0.075313
     9  C   -0.353718
    10  C    0.078790
    11  C   -0.605134
    12  C    0.683745
    13  C   -0.648025
    14  C    0.722603
    15  H    0.235784
    16  H    0.252797
    17  H    0.246136
    18  H    0.219449
    19  H    0.190044
    20  H    0.224826
    21  H    0.251487
    22  H    0.259578
    23  H    0.239611
    24  H    0.249496
    25  H    0.249496
 Sum of Mulliken charges =   1.00000

 Dipole moment (field-independent basis, Debye):
    X=              0.2311    Y=             -0.8265    Z=             -0.0000  Tot=              0.8582
 Quadrupole moment (field-independent basis, Debye-Ang):
   XX=            -51.0798   YY=            -36.2182   ZZ=            -84.1367
   XY=            -10.2264   XZ=             -0.0000   YZ=             -0.0000

 Normal termination of Gaussian 16 at Tue Aug  2 12:12:53 2022.
