 Gaussian 16, Revision C.01,
 Gaussian 16:  ES64L-G16RevC.01  3-Jul-2019

 ---------------------------------------------------------------
 #n M062X/6-311++G(d,p) TD(NStates=1) EmpiricalDispersion=GD3 SP
 ---------------------------------------------------------------

 -----
 SP_75
 -----
 Symbolic Z-matrix:
 Charge =  1 Multiplicity = 1

                         Standard orientation:
 ---------------------------------------------------------------------
 Center     Atomic      Atomic             Coordinates (Angstroms)
 Number     Number       Type             X           Y           Z
 ---------------------------------------------------------------------
      1          6           0       -2.366344   -1.550407    0.000000
      2          6           0       -2.318273   -2.941665    0.000000
      3          6           0       -1.087051   -3.590034    0.000000
      4          6           0        0.086135   -2.854126    0.000000
      5          6           0        2.384201    1.503483    0.000000
      6          6           0        2.352252    2.926406    0.000000
      7          6           0        1.147219    3.601214    0.000000
      8          6           0       -0.022592    2.851762    0.000000
      9          6           0       -1.281035    0.691160    0.000000
     10          6           0        1.250148   -0.693260    0.000000
     11          6           0       -1.199253   -0.796112    0.000000
     12          6           0        0.060017   -1.445203    0.000000
     13          6           0        0.000000    1.425129    0.000000
     14          6           0        1.220290    0.740461    0.000000
     15          1           0       -3.324838   -1.046132    0.000000
     16          1           0       -3.234969   -3.513180    0.000000
     17          1           0       -1.043372   -4.669852    0.000000
     18          1           0        1.043475   -3.358875    0.000000
     19          1           0        2.205376   -1.199385    0.000000
     20          1           0        3.345923    1.005904    0.000000
     21          1           0        3.287875    3.468147    0.000000
     22          1           0        1.111557    4.679932    0.000000
     23          1           0       -0.985516    3.348349    0.000000
     24          1           0       -1.879894    1.036121    0.860135
     25          1           0       -1.879894    1.036121   -0.860135
 ---------------------------------------------------------------------

 SCF Done:  E(RM062X) =  -539.758502829     A.U. after   15 cycles

 Excitation energies and oscillator strengths:

 Excited State   1:      Singlet-A'     2.7705 eV  447.51 nm  f=0.0246  <S**2>=0.000
      47 -> 48         0.70381
 This state for optimization and/or second-order correction.
 Total Energy, E(TD-HF/TD-DFT) =  -539.656688493
 Copying the excited state density for this state as the 1-particle RhoCI density.

 The electronic state is 1-A'.
 Alpha  occ. eigenvalues --  -10.77647 -10.73539 -10.72961 -10.72662 -10.72196
 Alpha  occ. eigenvalues --  -10.71637 -10.71527 -10.71089 -10.70987 -10.70499
 Alpha  occ. eigenvalues --  -10.70104 -10.69842 -10.69796 -10.69469  -1.16458
 Alpha  occ. eigenvalues --   -1.12460  -1.06943  -1.05745  -1.01305  -1.00237
 Alpha  occ. eigenvalues --   -0.95721  -0.91044  -0.86423  -0.85895  -0.83802
 Alpha  occ. eigenvalues --   -0.78379  -0.76049  -0.74402  -0.69634  -0.69265
 Alpha  occ. eigenvalues --   -0.68441  -0.68150  -0.68103  -0.64911  -0.64255
 Alpha  occ. eigenvalues --   -0.62939  -0.61788  -0.60196  -0.59502  -0.59116
 Alpha  occ. eigenvalues --   -0.56905  -0.55242  -0.54739  -0.52440  -0.46829
 Alpha  occ. eigenvalues --   -0.46089  -0.44275
 Alpha virt. eigenvalues --   -0.26097  -0.14667  -0.14093  -0.12771  -0.11181
 Alpha virt. eigenvalues --   -0.10087  -0.09238  -0.07976  -0.07960  -0.07478
 Alpha virt. eigenvalues --   -0.07204  -0.07142  -0.05644  -0.05579  -0.05337

 Mulliken charges:
               1
     1  C    0.081257
     2  C   -0.403727
     3  C   -0.436593
     4  C    0.020622
     5  C    0.001980
     6  C   -0.442595
     7  C   -0.410042
     8  C    0.104332
     9  C   -0.341058
    10  C    0.087997
    11  C   -0.646322
    12  C    0.706749
    13  C   -0.620542
    14  C    0.678731
    15  H    0.238727
    16  H    0.258524
    17  H    0.250657
    18  H    0.223896
    19  H    0.190214
    20  H    0.220222
    21  H    0.247073
    22  H    0.254001
    23  H    0.236160
    24  H    0.249868
    25  H    0.249868
 Sum of Mulliken charges =   1.00000

 Dipole moment (field-independent basis, Debye):
    X=             -0.0997    Y=             -0.5810    Z=             -0.0000  Tot=              0.5895
 Quadrupole moment (field-independent basis, Debye-Ang):
   XX=            -50.9358   YY=            -36.4097   ZZ=            -84.1394
   XY=             10.2974   XZ=              0.0000   YZ=             -0.0000

 Normal termination of Gaussian 16 at Tue Aug  2 12:48:00 2022.
