 Gaussian 16, Revision C.01,
 Gaussian 16:  ES64L-G16RevC.01  3-Jul-2019

 ---------------------------------------------------------------
 #n M062X/6-311++G(d,p) TD(NStates=1) EmpiricalDispersion=GD3 SP
 ---------------------------------------------------------------

 -------
 SP_-100
 -------
 Symbolic Z-matrix:
 Charge =  1 Multiplicity = 1

                         Standard orientation:
 ---------------------------------------------------------------------
 Center     Atomic      Atomic             Coordinates (Angstroms)
 Number     Number       Type             X           Y           Z
 ---------------------------------------------------------------------
      1          6           0        2.465865    1.466563    0.000000
      2          6           0        2.517987    2.852904    0.000000
      3          6           0        1.316776    3.519116    0.000000
      4          6           0        0.060665    2.790441    0.000000
      5          6           0       -2.515113   -1.409199    0.000000
      6          6           0       -2.530566   -2.765307    0.000000
      7          6           0       -1.324779   -3.475848    0.000000
      8          6           0       -0.099644   -2.810169    0.000000
      9          6           0        1.258537   -0.731577    0.000000
     10          6           0       -1.257112    0.682911    0.000000
     11          6           0        1.208770    0.734520    0.000000
     12          6           0        0.000000    1.413102    0.000000
     13          6           0       -0.058267   -1.449049    0.000000
     14          6           0       -1.279367   -0.705060    0.000000
     15          1           0        3.380217    0.884439    0.000000
     16          1           0        3.459575    3.379006    0.000000
     17          1           0        1.277139    4.600402    0.000000
     18          1           0       -0.854975    3.369559    0.000000
     19          1           0       -2.181355    1.243640    0.000000
     20          1           0       -3.434000   -0.837915    0.000000
     21          1           0       -3.468012   -3.303411    0.000000
     22          1           0       -1.340900   -4.556706    0.000000
     23          1           0        0.818632   -3.384305    0.000000
     24          1           0        1.880585   -1.037402    0.860135
     25          1           0        1.880585   -1.037402   -0.860135
 ---------------------------------------------------------------------

 SCF Done:  E(RM062X) =  -539.749373117     A.U. after   16 cycles

 Excitation energies and oscillator strengths:

 Excited State   1:      Singlet-A'     2.5869 eV  479.28 nm  f=0.0173  <S**2>=0.000
      47 -> 48         0.70344
 This state for optimization and/or second-order correction.
 Total Energy, E(TD-HF/TD-DFT) =  -539.654306599
 Copying the excited state density for this state as the 1-particle RhoCI density.

 The electronic state is 1-A'.
 Alpha  occ. eigenvalues --  -10.77525 -10.73947 -10.72947 -10.72518 -10.72346
 Alpha  occ. eigenvalues --  -10.71998 -10.71793 -10.70994 -10.70646 -10.70298
 Alpha  occ. eigenvalues --  -10.70032 -10.69797 -10.69646 -10.69224  -1.16603
 Alpha  occ. eigenvalues --   -1.12471  -1.06934  -1.05928  -1.01268  -1.00545
 Alpha  occ. eigenvalues --   -0.95441  -0.91004  -0.86456  -0.85882  -0.83749
 Alpha  occ. eigenvalues --   -0.78288  -0.76204  -0.74338  -0.69906  -0.69360
 Alpha  occ. eigenvalues --   -0.68201  -0.68086  -0.67995  -0.65499  -0.64220
 Alpha  occ. eigenvalues --   -0.62620  -0.61405  -0.60634  -0.59197  -0.59102
 Alpha  occ. eigenvalues --   -0.56963  -0.55265  -0.54389  -0.52442  -0.47647
 Alpha  occ. eigenvalues --   -0.46142  -0.43458
 Alpha virt. eigenvalues --   -0.26119  -0.14665  -0.14063  -0.12752  -0.11199
 Alpha virt. eigenvalues --   -0.10098  -0.09277  -0.07946  -0.07900  -0.07490
 Alpha virt. eigenvalues --   -0.07217  -0.07127  -0.05649  -0.05569  -0.05366

 Mulliken charges:
               1
     1  C    0.123466
     2  C   -0.415616
     3  C   -0.445013
     4  C   -0.013051
     5  C    0.030920
     6  C   -0.429735
     7  C   -0.399599
     8  C    0.066907
     9  C   -0.351286
    10  C    0.075356
    11  C   -0.586244
    12  C    0.658997
    13  C   -0.658571
    14  C    0.723856
    15  H    0.234570
    16  H    0.250663
    17  H    0.244435
    18  H    0.217786
    19  H    0.188972
    20  H    0.226710
    21  H    0.253320
    22  H    0.261846
    23  H    0.240815
    24  H    0.250249
    25  H    0.250249
 Sum of Mulliken charges =   1.00000

 Dipole moment (field-independent basis, Debye):
    X=             -0.8535    Y=             -1.1081    Z=             -0.0000  Tot=              1.3987
 Quadrupole moment (field-independent basis, Debye-Ang):
   XX=            -48.9702   YY=            -38.2447   ZZ=            -84.1245
   XY=             11.5197   XZ=             -0.0000   YZ=             -0.0000

 Normal termination of Gaussian 16 at Tue Aug  2 11:16:07 2022.
