 Gaussian 16, Revision C.01,
 Gaussian 16:  ES64L-G16RevC.01  3-Jul-2019

 ---------------------------------------------------------------
 #n M062X/6-311++G(d,p) TD(NStates=1) EmpiricalDispersion=GD3 SP
 ---------------------------------------------------------------

 ------
 SP_150
 ------
 Symbolic Z-matrix:
 Charge =  1 Multiplicity = 1

                         Standard orientation:
 ---------------------------------------------------------------------
 Center     Atomic      Atomic             Coordinates (Angstroms)
 Number     Number       Type             X           Y           Z
 ---------------------------------------------------------------------
      1          6           0        0.099649   -2.810171    0.000000
      2          6           0        1.324784   -3.475849    0.000000
      3          6           0        2.530571   -2.765307    0.000000
      4          6           0        2.515116   -1.409198    0.000000
      5          6           0       -0.060666    2.790439    0.000000
      6          6           0       -1.316778    3.519111    0.000000
      7          6           0       -2.517989    2.852899    0.000000
      8          6           0       -2.465865    1.466558    0.000000
      9          6           0       -1.258561   -0.731538    0.000000
     10          6           0        1.257113    0.682910    0.000000
     11          6           0        0.058270   -1.449051    0.000000
     12          6           0        1.279370   -0.705061    0.000000
     13          6           0       -1.208769    0.734515    0.000000
     14          6           0        0.000000    1.413100    0.000000
     15          1           0       -0.818627   -3.384309    0.000000
     16          1           0        1.340907   -4.556707    0.000000
     17          1           0        3.468017   -3.303410    0.000000
     18          1           0        3.434003   -0.837914    0.000000
     19          1           0        2.181356    1.243640    0.000000
     20          1           0        0.854973    3.369558    0.000000
     21          1           0       -1.277142    4.600398    0.000000
     22          1           0       -3.459577    3.378999    0.000000
     23          1           0       -3.380217    0.884432    0.000000
     24          1           0       -1.880582   -1.037407    0.860135
     25          1           0       -1.880582   -1.037407   -0.860135
 ---------------------------------------------------------------------

 SCF Done:  E(RM062X) =  -539.749372483     A.U. after   16 cycles

 Excitation energies and oscillator strengths:

 Excited State   1:      Singlet-A'     2.5869 eV  479.28 nm  f=0.0173  <S**2>=0.000
      47 -> 48         0.70344
 This state for optimization and/or second-order correction.
 Total Energy, E(TD-HF/TD-DFT) =  -539.654306346
 Copying the excited state density for this state as the 1-particle RhoCI density.

 The electronic state is 1-A'.
 Alpha  occ. eigenvalues --  -10.77525 -10.73947 -10.72947 -10.72518 -10.72346
 Alpha  occ. eigenvalues --  -10.71998 -10.71793 -10.70994 -10.70646 -10.70298
 Alpha  occ. eigenvalues --  -10.70032 -10.69797 -10.69646 -10.69224  -1.16603
 Alpha  occ. eigenvalues --   -1.12471  -1.06934  -1.05928  -1.01268  -1.00545
 Alpha  occ. eigenvalues --   -0.95441  -0.91004  -0.86456  -0.85882  -0.83749
 Alpha  occ. eigenvalues --   -0.78288  -0.76204  -0.74338  -0.69906  -0.69360
 Alpha  occ. eigenvalues --   -0.68201  -0.68086  -0.67995  -0.65499  -0.64220
 Alpha  occ. eigenvalues --   -0.62619  -0.61405  -0.60634  -0.59197  -0.59102
 Alpha  occ. eigenvalues --   -0.56963  -0.55265  -0.54389  -0.52442  -0.47647
 Alpha  occ. eigenvalues --   -0.46142  -0.43458
 Alpha virt. eigenvalues --   -0.26119  -0.14665  -0.14063  -0.12752  -0.11199
 Alpha virt. eigenvalues --   -0.10098  -0.09277  -0.07946  -0.07900  -0.07490
 Alpha virt. eigenvalues --   -0.07217  -0.07127  -0.05649  -0.05569  -0.05366

 Mulliken charges:
               1
     1  C    0.066928
     2  C   -0.399582
     3  C   -0.429736
     4  C    0.030933
     5  C   -0.013059
     6  C   -0.445015
     7  C   -0.415629
     8  C    0.123442
     9  C   -0.351286
    10  C    0.075357
    11  C   -0.658540
    12  C    0.723835
    13  C   -0.586264
    14  C    0.659004
    15  H    0.240814
    16  H    0.261846
    17  H    0.253321
    18  H    0.226710
    19  H    0.188972
    20  H    0.217786
    21  H    0.244434
    22  H    0.250663
    23  H    0.234571
    24  H    0.250248
    25  H    0.250248
 Sum of Mulliken charges =   1.00000

 Dipole moment (field-independent basis, Debye):
    X=              0.8535    Y=             -1.1081    Z=              0.0000  Tot=              1.3987
 Quadrupole moment (field-independent basis, Debye-Ang):
   XX=            -48.9702   YY=            -38.2447   ZZ=            -84.1245
   XY=            -11.5197   XZ=              0.0000   YZ=              0.0000

 Normal termination of Gaussian 16 at Tue Aug  2 13:27:53 2022.
