 Gaussian 16, Revision C.01,
 Gaussian 16:  ES64L-G16RevC.01  3-Jul-2019

 ---------------------------------------------------------------
 #n M062X/6-311++G(d,p) TD(NStates=1) EmpiricalDispersion=GD3 SP
 ---------------------------------------------------------------

 -------
 SP_-150
 -------
 Symbolic Z-matrix:
 Charge =  1 Multiplicity = 1

                         Standard orientation:
 ---------------------------------------------------------------------
 Center     Atomic      Atomic             Coordinates (Angstroms)
 Number     Number       Type             X           Y           Z
 ---------------------------------------------------------------------
      1          6           0        0.028118    2.864282    0.000000
      2          6           0       -1.132451    3.627129    0.000000
      3          6           0       -2.327022    2.948252    0.000000
      4          6           0       -2.358111    1.501302    0.000000
      5          6           0       -0.098932   -2.876466    0.000000
      6          6           0        1.056276   -3.595942    0.000000
      7          6           0        2.288350   -2.936610    0.000000
      8          6           0        2.352152   -1.542960    0.000000
      9          6           0        1.274221    0.692398    0.000000
     10          6           0       -1.238452   -0.715190    0.000000
     11          6           0        0.000000    1.416021    0.000000
     12          6           0       -1.210315    0.735168    0.000000
     13          6           0        1.206498   -0.801081    0.000000
     14          6           0       -0.061580   -1.457718    0.000000
     15          1           0        0.999085    3.346028    0.000000
     16          1           0       -1.093174    4.705161    0.000000
     17          1           0       -3.270063    3.478684    0.000000
     18          1           0       -3.327350    1.017285    0.000000
     19          1           0       -2.197052   -1.215184    0.000000
     20          1           0       -1.062801   -3.368267    0.000000
     21          1           0        1.027015   -4.676561    0.000000
     22          1           0        3.204243   -3.510604    0.000000
     23          1           0        3.318039   -1.053018    0.000000
     24          1           0        1.864773    1.062481    0.858760
     25          1           0        1.864773    1.062481   -0.858760
 ---------------------------------------------------------------------

 SCF Done:  E(RM062X) =  -539.751331440     A.U. after   16 cycles

 Excitation energies and oscillator strengths:

 Excited State   1:      Singlet-A'     2.6229 eV  472.70 nm  f=0.0185  <S**2>=0.000
      47 -> 48         0.70343
 This state for optimization and/or second-order correction.
 Total Energy, E(TD-HF/TD-DFT) =  -539.654942370
 Copying the excited state density for this state as the 1-particle RhoCI density.

 The electronic state is 1-A'.
 Alpha  occ. eigenvalues --  -10.77541 -10.73845 -10.72893 -10.72561 -10.72212
 Alpha  occ. eigenvalues --  -10.71940 -10.71852 -10.70975 -10.70717 -10.70263
 Alpha  occ. eigenvalues --  -10.69986 -10.69912 -10.69681 -10.69255  -1.16601
 Alpha  occ. eigenvalues --   -1.12491  -1.06935  -1.05938  -1.01277  -1.00517
 Alpha  occ. eigenvalues --   -0.95496  -0.91027  -0.86453  -0.85897  -0.83770
 Alpha  occ. eigenvalues --   -0.78314  -0.76199  -0.74356  -0.69844  -0.69347
 Alpha  occ. eigenvalues --   -0.68259  -0.68081  -0.68037  -0.65406  -0.64237
 Alpha  occ. eigenvalues --   -0.62694  -0.61506  -0.60542  -0.59180  -0.59164
 Alpha  occ. eigenvalues --   -0.56966  -0.55268  -0.54472  -0.52438  -0.47503
 Alpha  occ. eigenvalues --   -0.46131  -0.43602
 Alpha virt. eigenvalues --   -0.26102  -0.14668  -0.14069  -0.12753  -0.11197
 Alpha virt. eigenvalues --   -0.10100  -0.09269  -0.07953  -0.07907  -0.07488
 Alpha virt. eigenvalues --   -0.07219  -0.07134  -0.05646  -0.05573  -0.05362

 Mulliken charges:
               1
     1  C    0.122129
     2  C   -0.415313
     3  C   -0.444284
     4  C   -0.004372
     5  C    0.038253
     6  C   -0.431623
     7  C   -0.400482
     8  C    0.068996
     9  C   -0.336163
    10  C    0.086099
    11  C   -0.601613
    12  C    0.646693
    13  C   -0.659194
    14  C    0.710589
    15  H    0.234558
    16  H    0.251314
    17  H    0.244931
    18  H    0.218030
    19  H    0.189069
    20  H    0.226308
    21  H    0.252958
    22  H    0.261380
    23  H    0.240217
    24  H    0.250759
    25  H    0.250759
 Sum of Mulliken charges =   1.00000

 Dipole moment (field-independent basis, Debye):
    X=              0.4400    Y=             -1.1832    Z=             -0.0000  Tot=              1.2624
 Quadrupole moment (field-independent basis, Debye-Ang):
   XX=            -51.2916   YY=            -35.9736   ZZ=            -84.1267
   XY=            -10.0861   XZ=             -0.0000   YZ=             -0.0000

 Normal termination of Gaussian 16 at Tue Aug  2 10:43:22 2022.
