 Gaussian 16, Revision C.01,
 Gaussian 16:  ES64L-G16RevC.01  3-Jul-2019

 ---------------------------------------------------------------
 #n M062X/6-311++G(d,p) TD(NStates=1) EmpiricalDispersion=GD3 SP
 ---------------------------------------------------------------

 ------
 SP_-75
 ------
 Symbolic Z-matrix:
 Charge =  1 Multiplicity = 1

                         Standard orientation:
 ---------------------------------------------------------------------
 Center     Atomic      Atomic             Coordinates (Angstroms)
 Number     Number       Type             X           Y           Z
 ---------------------------------------------------------------------
      1          6           0        0.023576    2.847166    0.000000
      2          6           0       -1.149090    3.594989    0.000000
      3          6           0       -2.355595    2.921878    0.000000
      4          6           0       -2.389123    1.503854    0.000000
      5          6           0       -0.083346   -2.849381    0.000000
      6          6           0        1.094175   -3.587307    0.000000
      7          6           0        2.324121   -2.941101    0.000000
      8          6           0        2.368680   -1.548900    0.000000
      9          6           0        1.276556    0.687854    0.000000
     10          6           0       -1.252234   -0.688774    0.000000
     11          6           0        0.000000    1.426719    0.000000
     12          6           0       -1.222989    0.741802    0.000000
     13          6           0        1.197645   -0.794941    0.000000
     14          6           0       -0.059803   -1.443446    0.000000
     15          1           0        0.985146    3.346372    0.000000
     16          1           0       -1.113503    4.673861    0.000000
     17          1           0       -3.289639    3.466444    0.000000
     18          1           0       -3.349668    1.004043    0.000000
     19          1           0       -2.206906   -1.196212    0.000000
     20          1           0       -1.039144   -3.357299    0.000000
     21          1           0        1.048176   -4.667204    0.000000
     22          1           0        3.241377   -3.511555    0.000000
     23          1           0        3.325526   -1.041312    0.000000
     24          1           0        1.881604    1.030199    0.858760
     25          1           0        1.881604    1.030199   -0.858760
 ---------------------------------------------------------------------

 SCF Done:  E(RM062X) =  -539.759184881     A.U. after   15 cycles

 Excitation energies and oscillator strengths:

 Excited State   1:      Singlet-A'     2.7921 eV  444.05 nm  f=0.0264  <S**2>=0.000
      47 -> 48         0.70395
 This state for optimization and/or second-order correction.
 Total Energy, E(TD-HF/TD-DFT) =  -539.656575665
 Copying the excited state density for this state as the 1-particle RhoCI density.

 The electronic state is 1-A'.
 Alpha  occ. eigenvalues --  -10.77646 -10.73435 -10.73003 -10.72598 -10.72248
 Alpha  occ. eigenvalues --  -10.71569 -10.71400 -10.71157 -10.70969 -10.70628
 Alpha  occ. eigenvalues --  -10.70069 -10.69874 -10.69747 -10.69501  -1.16477
 Alpha  occ. eigenvalues --   -1.12480  -1.06943  -1.05782  -1.01309  -1.00245
 Alpha  occ. eigenvalues --   -0.95744  -0.91060  -0.86425  -0.85908  -0.83816
 Alpha  occ. eigenvalues --   -0.78393  -0.76064  -0.74412  -0.69592  -0.69263
 Alpha  occ. eigenvalues --   -0.68477  -0.68178  -0.68095  -0.64850  -0.64276
 Alpha  occ. eigenvalues --   -0.63026  -0.61828  -0.60106  -0.59567  -0.59100
 Alpha  occ. eigenvalues --   -0.56914  -0.55227  -0.54798  -0.52436  -0.46758
 Alpha  occ. eigenvalues --   -0.46076  -0.44355
 Alpha virt. eigenvalues --   -0.26083  -0.14670  -0.14094  -0.12770  -0.11181
 Alpha virt. eigenvalues --   -0.10090  -0.09234  -0.07979  -0.07959  -0.07478
 Alpha virt. eigenvalues --   -0.07207  -0.07145  -0.05642  -0.05582  -0.05337

 Mulliken charges:
               1
     1  C    0.102392
     2  C   -0.409580
     3  C   -0.441878
     4  C    0.011855
     5  C    0.026727
     6  C   -0.437773
     7  C   -0.404636
     8  C    0.084303
     9  C   -0.327089
    10  C    0.096353
    11  C   -0.629660
    12  C    0.666438
    13  C   -0.646758
    14  C    0.689347
    15  H    0.236186
    16  H    0.254670
    17  H    0.247591
    18  H    0.220602
    19  H    0.190166
    20  H    0.223430
    21  H    0.250286
    22  H    0.258054
    23  H    0.238121
    24  H    0.250426
    25  H    0.250426
 Sum of Mulliken charges =   1.00000

 Dipole moment (field-independent basis, Debye):
    X=              0.0366    Y=             -0.4564    Z=             -0.0000  Tot=              0.4578
 Quadrupole moment (field-independent basis, Debye-Ang):
   XX=            -50.8631   YY=            -36.5142   ZZ=            -84.1394
   XY=            -10.3261   XZ=              0.0000   YZ=             -0.0000

 Normal termination of Gaussian 16 at Tue Aug  2 11:23:45 2022.
