 Gaussian 16, Revision C.01,
 Gaussian 16:  ES64L-G16RevC.01  3-Jul-2019

 ---------------------------------------------------------------
 #n M062X/6-311++G(d,p) TD(NStates=1) EmpiricalDispersion=GD3 SP
 ---------------------------------------------------------------

 ------
 SP_-75
 ------
 Symbolic Z-matrix:
 Charge =  1 Multiplicity = 1

                         Standard orientation:
 ---------------------------------------------------------------------
 Center     Atomic      Atomic             Coordinates (Angstroms)
 Number     Number       Type             X           Y           Z
 ---------------------------------------------------------------------
      1          6           0        0.024772    2.856771    0.000000
      2          6           0       -1.141358    3.611583    0.000000
      3          6           0       -2.342196    2.935151    0.000000
      4          6           0       -2.373767    1.502622    0.000000
      5          6           0       -0.091214   -2.863068    0.000000
      6          6           0        1.074765   -3.592413    0.000000
      7          6           0        2.306311   -2.939652    0.000000
      8          6           0        2.360663   -1.547424    0.000000
      9          6           0        1.278314    0.691630    0.000000
     10          6           0       -1.245441   -0.702024    0.000000
     11          6           0       -0.000000    1.421485    0.000000
     12          6           0       -1.216297    0.738347    0.000000
     13          6           0        1.202157   -0.798082    0.000000
     14          6           0       -0.060622   -1.450206    0.000000
     15          1           0        0.990923    3.347435    0.000000
     16          1           0       -1.104256    4.690027    0.000000
     17          1           0       -3.280775    3.472354    0.000000
     18          1           0       -3.338505    1.010455    0.000000
     19          1           0       -2.202019   -1.205705    0.000000
     20          1           0       -1.051174   -3.362649    0.000000
     21          1           0        1.036861   -4.672534    0.000000
     22          1           0        3.222689   -3.512153    0.000000
     23          1           0        3.322124   -1.048870    0.000000
     24          1           0        1.873808    1.046660    0.859585
     25          1           0        1.873808    1.046660   -0.859585
 ---------------------------------------------------------------------

 SCF Done:  E(RM062X) =  -539.756306693     A.U. after   15 cycles

 Excitation energies and oscillator strengths:

 Excited State   1:      Singlet-A'     2.7173 eV  456.28 nm  f=0.0219  <S**2>=0.000
      47 -> 48         0.70360
 This state for optimization and/or second-order correction.
 Total Energy, E(TD-HF/TD-DFT) =  -539.656448293
 Copying the excited state density for this state as the 1-particle RhoCI density.

 The electronic state is 1-A'.
 Alpha  occ. eigenvalues --  -10.77613 -10.73664 -10.72801 -10.72759 -10.72062
 Alpha  occ. eigenvalues --  -10.71799 -10.71762 -10.70982 -10.70942 -10.70258
 Alpha  occ. eigenvalues --  -10.70168 -10.69873 -10.69778 -10.69383  -1.16505
 Alpha  occ. eigenvalues --   -1.12471  -1.06940  -1.05809  -1.01296  -1.00332
 Alpha  occ. eigenvalues --   -0.95646  -0.91041  -0.86433  -0.85897  -0.83793
 Alpha  occ. eigenvalues --   -0.78359  -0.76100  -0.74386  -0.69704  -0.69294
 Alpha  occ. eigenvalues --   -0.68380  -0.68111  -0.68095  -0.65092  -0.64246
 Alpha  occ. eigenvalues --   -0.62849  -0.61697  -0.60328  -0.59370  -0.59138
 Alpha  occ. eigenvalues --   -0.56927  -0.55256  -0.54650  -0.52439  -0.47066
 Alpha  occ. eigenvalues --   -0.46108  -0.44032
 Alpha virt. eigenvalues --   -0.26098  -0.14668  -0.14085  -0.12766  -0.11186
 Alpha virt. eigenvalues --   -0.10091  -0.09248  -0.07969  -0.07943  -0.07481
 Alpha virt. eigenvalues --   -0.07209  -0.07140  -0.05645  -0.05577  -0.05345

 Mulliken charges:
               1
     1  C    0.111252
     2  C   -0.412059
     3  C   -0.443475
     4  C   -0.000408
     5  C    0.027880
     6  C   -0.434711
     7  C   -0.402444
     8  C    0.076278
     9  C   -0.338340
    10  C    0.088108
    11  C   -0.613773
    12  C    0.665826
    13  C   -0.652055
    14  C    0.708308
    15  H    0.235489
    16  H    0.252918
    17  H    0.246213
    18  H    0.219328
    19  H    0.189847
    20  H    0.224852
    21  H    0.251580
    22  H    0.259678
    23  H    0.239316
    24  H    0.250195
    25  H    0.250195
 Sum of Mulliken charges =   1.00000

 Dipole moment (field-independent basis, Debye):
    X=              0.2356    Y=             -0.8236    Z=              0.0000  Tot=              0.8566
 Quadrupole moment (field-independent basis, Debye-Ang):
   XX=            -51.0795   YY=            -36.2431   ZZ=            -84.1354
   XY=            -10.2084   XZ=              0.0000   YZ=              0.0000

 Normal termination of Gaussian 16 at Tue Aug  2 11:27:05 2022.
