 Gaussian 16, Revision C.01,
 Gaussian 16:  ES64L-G16RevC.01  3-Jul-2019

 ---------------------------------------------------------------
 #n M062X/6-311++G(d,p) TD(NStates=1) EmpiricalDispersion=GD3 SP
 ---------------------------------------------------------------

 ------
 SP_-75
 ------
 Symbolic Z-matrix:
 Charge =  1 Multiplicity = 1

                         Standard orientation:
 ---------------------------------------------------------------------
 Center     Atomic      Atomic             Coordinates (Angstroms)
 Number     Number       Type             X           Y           Z
 ---------------------------------------------------------------------
      1          6           0       -2.371002   -1.547394    0.000000
      2          6           0       -2.329949   -2.940533    0.000000
      3          6           0       -1.101273   -3.584569    0.000000
      4          6           0        0.080585   -2.844624    0.000000
      5          6           0        2.394044    1.504238    0.000000
      6          6           0        2.358922    2.917368    0.000000
      7          6           0        1.150937    3.588776    0.000000
      8          6           0       -0.024577    2.842582    0.000000
      9          6           0       -1.272153    0.684410    0.000000
     10          6           0        1.254337   -0.684278    0.000000
     11          6           0       -1.196028   -0.793771    0.000000
     12          6           0        0.059605   -1.441681    0.000000
     13          6           0        0.000000    1.428318    0.000000
     14          6           0        1.225692    0.743154    0.000000
     15          1           0       -3.326199   -1.036501    0.000000
     16          1           0       -3.247761   -3.509929    0.000000
     17          1           0       -1.052949   -4.664549    0.000000
     18          1           0        1.034837   -3.355704    0.000000
     19          1           0        2.208453   -1.193024    0.000000
     20          1           0        3.353412    1.002202    0.000000
     21          1           0        3.291391    3.464767    0.000000
     22          1           0        1.115419    4.667803    0.000000
     23          1           0       -0.984791    3.344401    0.000000
     24          1           0       -1.883326    1.024279    0.857385
     25          1           0       -1.883326    1.024279   -0.857385
 ---------------------------------------------------------------------

 SCF Done:  E(RM062X) =  -539.759601033     A.U. after   15 cycles

 Excitation energies and oscillator strengths:

 Excited State   1:      Singlet-A'     2.8081 eV  441.52 nm  f=0.0279  <S**2>=0.000
      47 -> 48         0.70410
 This state for optimization and/or second-order correction.
 Total Energy, E(TD-HF/TD-DFT) =  -539.656403426
 Copying the excited state density for this state as the 1-particle RhoCI density.

 The electronic state is 1-A'.
 Alpha  occ. eigenvalues --  -10.77642 -10.73330 -10.73044 -10.72532 -10.72298
 Alpha  occ. eigenvalues --  -10.71499 -10.71273 -10.71224 -10.70952 -10.70758
 Alpha  occ. eigenvalues --  -10.70035 -10.69906 -10.69698 -10.69533  -1.16501
 Alpha  occ. eigenvalues --   -1.12500  -1.06944  -1.05823  -1.01313  -1.00262
 Alpha  occ. eigenvalues --   -0.95759  -0.91075  -0.86427  -0.85920  -0.83830
 Alpha  occ. eigenvalues --   -0.78404  -0.76084  -0.74420  -0.69556  -0.69264
 Alpha  occ. eigenvalues --   -0.68506  -0.68203  -0.68087  -0.64801  -0.64298
 Alpha  occ. eigenvalues --   -0.63109  -0.61854  -0.60018  -0.59632  -0.59086
 Alpha  occ. eigenvalues --   -0.56926  -0.55210  -0.54850  -0.52432  -0.46711
 Alpha  occ. eigenvalues --   -0.46065  -0.44411
 Alpha virt. eigenvalues --   -0.26069  -0.14674  -0.14094  -0.12768  -0.11182
 Alpha virt. eigenvalues --   -0.10093  -0.09232  -0.07981  -0.07957  -0.07478
 Alpha virt. eigenvalues --   -0.07211  -0.07148  -0.05640  -0.05584  -0.05338

 Mulliken charges:
               1
     1  C    0.086613
     2  C   -0.405177
     3  C   -0.438782
     4  C    0.033077
     5  C    0.022666
     6  C   -0.441226
     7  C   -0.408541
     8  C    0.099370
     9  C   -0.313243
    10  C    0.103740
    11  C   -0.646097
    12  C    0.669834
    13  C   -0.636067
    14  C    0.653076
    15  H    0.237497
    16  H    0.257593
    17  H    0.249913
    18  H    0.222963
    19  H    0.190094
    20  H    0.221028
    21  H    0.248115
    22  H    0.255343
    23  H    0.236196
    24  H    0.251006
    25  H    0.251006
 Sum of Mulliken charges =   1.00000

 Dipole moment (field-independent basis, Debye):
    X=              0.0262    Y=             -0.3314    Z=             -0.0000  Tot=              0.3324
 Quadrupole moment (field-independent basis, Debye-Ang):
   XX=            -50.7900   YY=            -36.6162   ZZ=            -84.1392
   XY=             10.3560   XZ=             -0.0000   YZ=              0.0000

 Normal termination of Gaussian 16 at Tue Aug  2 11:18:19 2022.
