 Gaussian 16, Revision C.01,
 Gaussian 16:  ES64L-G16RevC.01  3-Jul-2019

 ---------------------------------------------------------------
 #n M062X/6-311++G(d,p) TD(NStates=1) EmpiricalDispersion=GD3 SP
 ---------------------------------------------------------------

 ------
 SP_-25
 ------
 Symbolic Z-matrix:
 Charge =  1 Multiplicity = 1

                         Standard orientation:
 ---------------------------------------------------------------------
 Center     Atomic      Atomic             Coordinates (Angstroms)
 Number     Number       Type             X           Y           Z
 ---------------------------------------------------------------------
      1          6           0        2.458081    1.464884    0.000000
      2          6           0        2.500821    2.851806    0.000000
      3          6           0        1.298639    3.524959    0.000000
      4          6           0        0.054429    2.804498    0.000000
      5          6           0       -2.500022   -1.408199    0.000000
      6          6           0       -2.518704   -2.778628    0.000000
      7          6           0       -1.319001   -3.492434    0.000000
      8          6           0       -0.099798   -2.819735    0.000000
      9          6           0        1.259811   -0.735794    0.000000
     10          6           0       -1.249282    0.696036    0.000000
     11          6           0        1.213636    0.737026    0.000000
     12          6           0        0.000000    1.419864    0.000000
     13          6           0       -0.058330   -1.443764    0.000000
     14          6           0       -1.272629   -0.701651    0.000000
     15          1           0        3.377415    0.891255    0.000000
     16          1           0        3.441772    3.379731    0.000000
     17          1           0        1.267391    4.605940    0.000000
     18          1           0       -0.865697    3.375787    0.000000
     19          1           0       -2.175481    1.253371    0.000000
     20          1           0       -3.423391   -0.844044    0.000000
     21          1           0       -3.460340   -3.308830    0.000000
     22          1           0       -1.333879   -4.572929    0.000000
     23          1           0        0.823403   -3.385868    0.000000
     24          1           0        1.871447   -1.053814    0.860960
     25          1           0        1.871447   -1.053814   -0.860960
 ---------------------------------------------------------------------

 SCF Done:  E(RM062X) =  -539.754964542     A.U. after   15 cycles

 Excitation energies and oscillator strengths:

 Excited State   1:      Singlet-A'     2.6856 eV  461.67 nm  f=0.0202  <S**2>=0.000
      47 -> 48         0.70356
 This state for optimization and/or second-order correction.
 Total Energy, E(TD-HF/TD-DFT) =  -539.656271975
 Copying the excited state density for this state as the 1-particle RhoCI density.

 The electronic state is 1-A'.
 Alpha  occ. eigenvalues --  -10.77605 -10.73768 -10.72819 -10.72758 -10.72006
 Alpha  occ. eigenvalues --  -10.71929 -10.71825 -10.71000 -10.70872 -10.70203
 Alpha  occ. eigenvalues --  -10.70134 -10.69920 -10.69745 -10.69352  -1.16496
 Alpha  occ. eigenvalues --   -1.12451  -1.06939  -1.05786  -1.01289  -1.00345
 Alpha  occ. eigenvalues --   -0.95604  -0.91022  -0.86434  -0.85883  -0.83774
 Alpha  occ. eigenvalues --   -0.78340  -0.76096  -0.74371  -0.69759  -0.69304
 Alpha  occ. eigenvalues --   -0.68330  -0.68102  -0.68073  -0.65178  -0.64227
 Alpha  occ. eigenvalues --   -0.62764  -0.61621  -0.60420  -0.59306  -0.59158
 Alpha  occ. eigenvalues --   -0.56922  -0.55262  -0.54576  -0.52443  -0.47186
 Alpha  occ. eigenvalues --   -0.46120  -0.43908
 Alpha virt. eigenvalues --   -0.26113  -0.14664  -0.14082  -0.12765  -0.11187
 Alpha virt. eigenvalues --   -0.10089  -0.09254  -0.07964  -0.07940  -0.07482
 Alpha virt. eigenvalues --   -0.07207  -0.07135  -0.05647  -0.05574  -0.05347

 Mulliken charges:
               1
     1  C    0.112530
     2  C   -0.412190
     3  C   -0.444212
     4  C   -0.009315
     5  C    0.021506
     6  C   -0.433179
     7  C   -0.401262
     8  C    0.073465
     9  C   -0.352655
    10  C    0.078355
    11  C   -0.600373
    12  C    0.676647
    13  C   -0.650566
    14  C    0.722341
    15  H    0.235462
    16  H    0.252258
    17  H    0.245706
    18  H    0.219024
    19  H    0.189823
    20  H    0.225287
    21  H    0.251945
    22  H    0.260151
    23  H    0.239903
    24  H    0.249675
    25  H    0.249675
 Sum of Mulliken charges =   1.00000

 Dipole moment (field-independent basis, Debye):
    X=             -0.6541    Y=             -0.7473    Z=             -0.0000  Tot=              0.9931
 Quadrupole moment (field-independent basis, Debye-Ang):
   XX=            -49.2143   YY=            -38.0675   ZZ=            -84.1343
   XY=             11.3602   XZ=             -0.0000   YZ=             -0.0000

 Normal termination of Gaussian 16 at Tue Aug  2 11:59:11 2022.
