 Gaussian 16, Revision C.01,
 Gaussian 16:  ES64L-G16RevC.01  3-Jul-2019

 ---------------------------------------------------------------
 #n M062X/6-311++G(d,p) TD(NStates=1) EmpiricalDispersion=GD3 SP
 ---------------------------------------------------------------

 ------
 SP_125
 ------
 Symbolic Z-matrix:
 Charge =  1 Multiplicity = 1

                         Standard orientation:
 ---------------------------------------------------------------------
 Center     Atomic      Atomic             Coordinates (Angstroms)
 Number     Number       Type             X           Y           Z
 ---------------------------------------------------------------------
      1          6           0        0.099059   -2.815885    0.000000
      2          6           0        1.320606   -3.486569    0.000000
      3          6           0        2.522133   -2.774150    0.000000
      4          6           0        2.504967   -1.408506    0.000000
      5          6           0       -0.056622    2.799715    0.000000
      6          6           0       -1.305022    3.522477    0.000000
      7          6           0       -2.506495    2.851633    0.000000
      8          6           0       -2.460466    1.464430    0.000000
      9          6           0       -1.257518   -0.733220    0.000000
     10          6           0        1.251789    0.691624    0.000000
     11          6           0        0.058318   -1.445450    0.000000
     12          6           0        1.275119   -0.702866    0.000000
     13          6           0       -1.211965    0.736111    0.000000
     14          6           0        0.000000    1.417854    0.000000
     15          1           0       -0.822592   -3.384589    0.000000
     16          1           0        1.335694   -4.567202    0.000000
     17          1           0        3.462347   -3.307160    0.000000
     18          1           0        3.426959   -0.842115    0.000000
     19          1           0        2.177371    1.250133    0.000000
     20          1           0        0.861920    3.373816    0.000000
     21          1           0       -1.271181    4.603620    0.000000
     22          1           0       -3.447789    3.378745    0.000000
     23          1           0       -3.378077    0.887809    0.000000
     24          1           0       -1.874033   -1.048118    0.860135
     25          1           0       -1.874033   -1.048118   -0.860135
 ---------------------------------------------------------------------

 SCF Done:  E(RM062X) =  -539.753301080     A.U. after   16 cycles

 Excitation energies and oscillator strengths:

 Excited State   1:      Singlet-A'     2.6543 eV  467.10 nm  f=0.0193  <S**2>=0.000
      47 -> 48         0.70350
 This state for optimization and/or second-order correction.
 Total Energy, E(TD-HF/TD-DFT) =  -539.655755763
 Copying the excited state density for this state as the 1-particle RhoCI density.

 The electronic state is 1-A'.
 Alpha  occ. eigenvalues --  -10.77577 -10.73815 -10.72859 -10.72665 -10.72070
 Alpha  occ. eigenvalues --  -10.71931 -10.71883 -10.70991 -10.70796 -10.70234
 Alpha  occ. eigenvalues --  -10.70021 -10.69955 -10.69713 -10.69305  -1.16541
 Alpha  occ. eigenvalues --   -1.12466  -1.06937  -1.05850  -1.01283  -1.00422
 Alpha  occ. eigenvalues --   -0.95552  -0.91023  -0.86443  -0.85888  -0.83771
 Alpha  occ. eigenvalues --   -0.78327  -0.76140  -0.74362  -0.69801  -0.69324
 Alpha  occ. eigenvalues --   -0.68294  -0.68093  -0.68053  -0.65288  -0.64229
 Alpha  occ. eigenvalues --   -0.62726  -0.61562  -0.60484  -0.59237  -0.59169
 Alpha  occ. eigenvalues --   -0.56942  -0.55266  -0.54524  -0.52441  -0.47339
 Alpha  occ. eigenvalues --   -0.46126  -0.43759
 Alpha virt. eigenvalues --   -0.26110  -0.14666  -0.14076  -0.12760  -0.11191
 Alpha virt. eigenvalues --   -0.10093  -0.09261  -0.07958  -0.07925  -0.07485
 Alpha virt. eigenvalues --   -0.07211  -0.07134  -0.05647  -0.05573  -0.05354

 Mulliken charges:
               1
     1  C    0.071574
     2  C   -0.400854
     3  C   -0.432265
     4  C    0.028031
     5  C   -0.008148
     6  C   -0.444393
     7  C   -0.413675
     8  C    0.117083
     9  C   -0.346874
    10  C    0.080809
    11  C   -0.654628
    12  C    0.718470
    13  C   -0.599302
    14  C    0.664741
    15  H    0.240109
    16  H    0.260751
    17  H    0.252436
    18  H    0.225775
    19  H    0.189498
    20  H    0.218555
    21  H    0.245304
    22  H    0.251762
    23  H    0.235059
    24  H    0.250090
    25  H    0.250090
 Sum of Mulliken charges =   1.00000

 Dipole moment (field-independent basis, Debye):
    X=              0.7196    Y=             -0.8687    Z=              0.0000  Tot=              1.1280
 Quadrupole moment (field-independent basis, Debye-Ang):
   XX=            -49.1337   YY=            -38.1370   ZZ=            -84.1309
   XY=            -11.4056   XZ=             -0.0000   YZ=              0.0000

 Normal termination of Gaussian 16 at Tue Aug  2 13:14:42 2022.
