 Gaussian 16, Revision C.01,
 Gaussian 16:  ES64L-G16RevC.01  3-Jul-2019

 ---------------------------------------------------------------
 #n M062X/6-311++G(d,p) TD(NStates=1) EmpiricalDispersion=GD3 SP
 ---------------------------------------------------------------

 -----
 SP_25
 -----
 Symbolic Z-matrix:
 Charge =  1 Multiplicity = 1

                         Standard orientation:
 ---------------------------------------------------------------------
 Center     Atomic      Atomic             Coordinates (Angstroms)
 Number     Number       Type             X           Y           Z
 ---------------------------------------------------------------------
      1          6           0        2.491504   -1.370634    0.000000
      2          6           0        3.703292   -0.689532    0.000000
      3          6           0        3.688418    0.695514    0.000000
      4          6           0        2.465304    1.394750    0.000000
      5          6           0       -2.461092    1.420633    0.000000
      6          6           0       -3.680108    0.733622    0.000000
      7          6           0       -3.701064   -0.653944    0.000000
      8          6           0       -2.496611   -1.349333    0.000000
      9          6           0       -0.004247   -1.456665    0.000000
     10          6           0        0.000000    1.429352    0.000000
     11          6           0        1.258230   -0.680646    0.000000
     12          6           0        1.237732    0.724925    0.000000
     13          6           0       -1.266098   -0.673540    0.000000
     14          6           0       -1.236584    0.736240    0.000000
     15          1           0        2.480079   -2.453810    0.000000
     16          1           0        4.636394   -1.232653    0.000000
     17          1           0        4.614143    1.253429    0.000000
     18          1           0        2.476161    2.477259    0.000000
     19          1           0        0.005156    2.510341    0.000000
     20          1           0       -2.458424    2.503052    0.000000
     21          1           0       -4.604745    1.293125    0.000000
     22          1           0       -4.638737   -1.189614    0.000000
     23          1           0       -2.499317   -2.432473    0.000000
     24          1           0       -0.001385   -2.146552    0.860410
     25          1           0       -0.001385   -2.146552   -0.860410
 ---------------------------------------------------------------------

 SCF Done:  E(RM062X) =  -539.760154949     A.U. after   15 cycles

 Excitation energies and oscillator strengths:

 Excited State   1:      Singlet-A'     2.8195 eV  439.74 nm  f=0.0282  <S**2>=0.000
      47 -> 48         0.70422
 This state for optimization and/or second-order correction.
 Total Energy, E(TD-HF/TD-DFT) =  -539.656541381
 Copying the excited state density for this state as the 1-particle RhoCI density.

 The electronic state is 1-A'.
 Alpha  occ. eigenvalues --  -10.77670 -10.73332 -10.73188 -10.72500 -10.72383
 Alpha  occ. eigenvalues --  -10.71439 -10.71301 -10.71131 -10.70990 -10.70873
 Alpha  occ. eigenvalues --  -10.70006 -10.69940 -10.69676 -10.69594  -1.16425
 Alpha  occ. eigenvalues --   -1.12453  -1.06945  -1.05702  -1.01312  -1.00167
 Alpha  occ. eigenvalues --   -0.95781  -0.91048  -0.86416  -0.85895  -0.83810
 Alpha  occ. eigenvalues --   -0.78395  -0.76012  -0.74415  -0.69574  -0.69242
 Alpha  occ. eigenvalues --   -0.68494  -0.68183  -0.68108  -0.64747  -0.64274
 Alpha  occ. eigenvalues --   -0.63029  -0.61860  -0.60041  -0.59655  -0.59098
 Alpha  occ. eigenvalues --   -0.56888  -0.55221  -0.54819  -0.52440  -0.46628
 Alpha  occ. eigenvalues --   -0.46059  -0.44496
 Alpha virt. eigenvalues --   -0.26096  -0.14667  -0.14098  -0.12775  -0.11178
 Alpha virt. eigenvalues --   -0.10084  -0.09230  -0.07982  -0.07973  -0.07475
 Alpha virt. eigenvalues --   -0.07201  -0.07144  -0.05644  -0.05580  -0.05331

 Mulliken charges:
               1
     1  C    0.095483
     2  C   -0.407293
     3  C   -0.440823
     4  C    0.007812
     5  C    0.012505
     6  C   -0.439303
     7  C   -0.405737
     8  C    0.089751
     9  C   -0.341869
    10  C    0.088665
    11  C   -0.630430
    12  C    0.691064
    13  C   -0.636945
    14  C    0.698100
    15  H    0.237121
    16  H    0.255678
    17  H    0.248397
    18  H    0.221573
    19  H    0.190477
    20  H    0.222492
    21  H    0.249292
    22  H    0.256813
    23  H    0.237765
    24  H    0.249708
    25  H    0.249708
 Sum of Mulliken charges =   1.00000

 Dipole moment (field-independent basis, Debye):
    X=             -0.1393    Y=              0.1906    Z=              0.0000  Tot=              0.2361
 Quadrupole moment (field-independent basis, Debye-Ang):
   XX=            -31.0981   YY=            -56.2668   ZZ=            -84.1424
   XY=             -0.1768   XZ=             -0.0000   YZ=             -0.0000

 Normal termination of Gaussian 16 at Tue Aug  2 12:22:43 2022.
