 Gaussian 16, Revision C.01,
 Gaussian 16:  ES64L-G16RevC.01  3-Jul-2019

 ---------------------------------------------------------------
 #n M062X/6-311++G(d,p) TD(NStates=1) EmpiricalDispersion=GD3 SP
 ---------------------------------------------------------------

 ------
 SP_125
 ------
 Symbolic Z-matrix:
 Charge =  1 Multiplicity = 1

                         Standard orientation:
 ---------------------------------------------------------------------
 Center     Atomic      Atomic             Coordinates (Angstroms)
 Number     Number       Type             X           Y           Z
 ---------------------------------------------------------------------
      1          6           0       -2.363841   -1.550916    0.000000
      2          6           0       -2.312383   -2.941704    0.000000
      3          6           0       -1.080253   -3.592245    0.000000
      4          6           0        0.088843   -2.858781    0.000000
      5          6           0        2.379181    1.503086    0.000000
      6          6           0        2.348344    2.930877    0.000000
      7          6           0        1.144989    3.607090    0.000000
      8          6           0       -0.022306    2.855660    0.000000
      9          6           0       -1.283550    0.693479    0.000000
     10          6           0        1.247975   -0.697717    0.000000
     11          6           0       -1.200810   -0.797226    0.000000
     12          6           0        0.060260   -1.447212    0.000000
     13          6           0        0.000000    1.423460    0.000000
     14          6           0        1.217826    0.739210    0.000000
     15          1           0       -3.323924   -1.049804    0.000000
     16          1           0       -3.228652   -3.514091    0.000000
     17          1           0       -1.039083   -4.672064    0.000000
     18          1           0        1.047646   -3.360556    0.000000
     19          1           0        2.203799   -1.202558    0.000000
     20          1           0        3.342189    1.007897    0.000000
     21          1           0        3.285514    3.469980    0.000000
     22          1           0        1.109036    4.685660    0.000000
     23          1           0       -0.986669    3.349514    0.000000
     24          1           0       -1.877748    1.041825    0.860960
     25          1           0       -1.877748    1.041825   -0.860960
 ---------------------------------------------------------------------

 SCF Done:  E(RM062X) =  -539.757551372     A.U. after   15 cycles

 Excitation energies and oscillator strengths:

 Excited State   1:      Singlet-A'     2.7446 eV  451.74 nm  f=0.0229  <S**2>=0.000
      47 -> 48         0.70370
 This state for optimization and/or second-order correction.
 Total Energy, E(TD-HF/TD-DFT) =  -539.656688583
 Copying the excited state density for this state as the 1-particle RhoCI density.

 The electronic state is 1-A'.
 Alpha  occ. eigenvalues --  -10.77641 -10.73630 -10.72906 -10.72720 -10.72138
 Alpha  occ. eigenvalues --  -10.71702 -10.71658 -10.71019 -10.70998 -10.70373
 Alpha  occ. eigenvalues --  -10.70138 -10.69841 -10.69810 -10.69433  -1.16454
 Alpha  occ. eigenvalues --   -1.12448  -1.06942  -1.05733  -1.01300  -1.00252
 Alpha  occ. eigenvalues --   -0.95689  -0.91033  -0.86425  -0.85887  -0.83790
 Alpha  occ. eigenvalues --   -0.78366  -0.76049  -0.74391  -0.69676  -0.69274
 Alpha  occ. eigenvalues --   -0.68405  -0.68122  -0.68107  -0.64988  -0.64240
 Alpha  occ. eigenvalues --   -0.62867  -0.61739  -0.60278  -0.59438  -0.59131
 Alpha  occ. eigenvalues --   -0.56903  -0.55252  -0.54682  -0.52443  -0.46927
 Alpha  occ. eigenvalues --   -0.46101  -0.44170
 Alpha virt. eigenvalues --   -0.26107  -0.14665  -0.14090  -0.12771  -0.11182
 Alpha virt. eigenvalues --   -0.10085  -0.09242  -0.07972  -0.07958  -0.07478
 Alpha virt. eigenvalues --   -0.07203  -0.07139  -0.05646  -0.05576  -0.05339

 Mulliken charges:
               1
     1  C    0.078119
     2  C   -0.402713
     3  C   -0.435401
     4  C    0.017902
     5  C   -0.004458
     6  C   -0.443269
     7  C   -0.410454
     8  C    0.106151
     9  C   -0.349863
    10  C    0.082023
    11  C   -0.646436
    12  C    0.717333
    13  C   -0.611920
    14  C    0.684190
    15  H    0.239217
    16  H    0.259033
    17  H    0.251058
    18  H    0.224362
    19  H    0.190174
    20  H    0.219845
    21  H    0.246589
    22  H    0.253378
    23  H    0.236020
    24  H    0.249560
    25  H    0.249560
 Sum of Mulliken charges =   1.00000

 Dipole moment (field-independent basis, Debye):
    X=             -0.1646    Y=             -0.7045    Z=              0.0000  Tot=              0.7234
 Quadrupole moment (field-independent basis, Debye-Ang):
   XX=            -51.0080   YY=            -36.3113   ZZ=            -84.1384
   XY=             10.2642   XZ=             -0.0000   YZ=             -0.0000

 Normal termination of Gaussian 16 at Tue Aug  2 13:17:57 2022.
