 Gaussian 16, Revision C.01,
 Gaussian 16:  ES64L-G16RevC.01  3-Jul-2019

 ---------------------------------------------------------------
 #n M062X/6-311++G(d,p) TD(NStates=1) EmpiricalDispersion=GD3 SP
 ---------------------------------------------------------------

 ------
 SP_150
 ------
 Symbolic Z-matrix:
 Charge =  1 Multiplicity = 1

                         Standard orientation:
 ---------------------------------------------------------------------
 Center     Atomic      Atomic             Coordinates (Angstroms)
 Number     Number       Type             X           Y           Z
 ---------------------------------------------------------------------
      1          6           0       -2.372543   -1.556398    0.000000
      2          6           0       -2.330361   -2.945233    0.000000
      3          6           0       -1.098314   -3.589165    0.000000
      4          6           0        0.081373   -2.845449    0.000000
      5          6           0        2.394925    1.504382    0.000000
      6          6           0        2.363930    2.917798    0.000000
      7          6           0        1.154057    3.591882    0.000000
      8          6           0       -0.018394    2.848838    0.000000
      9          6           0       -1.289574    0.693831    0.000000
     10          6           0        1.255172   -0.684617    0.000000
     11          6           0       -1.196495   -0.794362    0.000000
     12          6           0        0.059361   -1.439463    0.000000
     13          6           0        0.000000    1.429009    0.000000
     14          6           0        1.223585    0.742285    0.000000
     15          1           0       -3.328216   -1.046875    0.000000
     16          1           0       -3.246967   -3.516341    0.000000
     17          1           0       -1.048280   -4.668481    0.000000
     18          1           0        1.036313   -3.354763    0.000000
     19          1           0        2.208930   -1.193078    0.000000
     20          1           0        3.353284    1.000938    0.000000
     21          1           0        3.296713    3.463547    0.000000
     22          1           0        1.120469    4.670852    0.000000
     23          1           0       -0.977812    3.351669    0.000000
     24          1           0       -1.887384    1.026246    0.862335
     25          1           0       -1.887384    1.026246   -0.862335
 ---------------------------------------------------------------------

 SCF Done:  E(RM062X) =  -539.759806404     A.U. after   15 cycles

 Excitation energies and oscillator strengths:

 Excited State   1:      Singlet-A'     2.8089 eV  441.39 nm  f=0.0269  <S**2>=0.000
      47 -> 48         0.70410
 This state for optimization and/or second-order correction.
 Total Energy, E(TD-HF/TD-DFT) =  -539.656580225
 Copying the excited state density for this state as the 1-particle RhoCI density.

 The electronic state is 1-A'.
 Alpha  occ. eigenvalues --  -10.77682 -10.73452 -10.73159 -10.72572 -10.72338
 Alpha  occ. eigenvalues --  -10.71510 -10.71254 -10.71237 -10.71015 -10.70739
 Alpha  occ. eigenvalues --  -10.70041 -10.69908 -10.69728 -10.69565  -1.16386
 Alpha  occ. eigenvalues --   -1.12424  -1.06946  -1.05634  -1.01310  -1.00128
 Alpha  occ. eigenvalues --   -0.95775  -0.91029  -0.86412  -0.85878  -0.83794
 Alpha  occ. eigenvalues --   -0.78384  -0.75977  -0.74408  -0.69607  -0.69237
 Alpha  occ. eigenvalues --   -0.68467  -0.68157  -0.68122  -0.64770  -0.64248
 Alpha  occ. eigenvalues --   -0.62944  -0.61839  -0.60125  -0.59603  -0.59111
 Alpha  occ. eigenvalues --   -0.56868  -0.55236  -0.54767  -0.52446  -0.46644
 Alpha  occ. eigenvalues --   -0.46068  -0.44472
 Alpha virt. eigenvalues --   -0.26114  -0.14663  -0.14099  -0.12777  -0.11176
 Alpha virt. eigenvalues --   -0.10079  -0.09232  -0.07980  -0.07980  -0.07474
 Alpha virt. eigenvalues --   -0.07195  -0.07139  -0.05647  -0.05577  -0.05329

 Mulliken charges:
               1
     1  C    0.084249
     2  C   -0.404019
     3  C   -0.438186
     4  C    0.004658
     5  C   -0.003806
     6  C   -0.441534
     7  C   -0.407056
     8  C    0.095114
     9  C   -0.359929
    10  C    0.077256
    11  C   -0.633101
    12  C    0.719828
    13  C   -0.618629
    14  C    0.707205
    15  H    0.238432
    16  H    0.257251
    17  H    0.249644
    18  H    0.222993
    19  H    0.190644
    20  H    0.221212
    21  H    0.247853
    22  H    0.254979
    23  H    0.237144
    24  H    0.248900
    25  H    0.248900
 Sum of Mulliken charges =   1.00000

 Dipole moment (field-independent basis, Debye):
    X=              0.0401    Y=             -0.3394    Z=             -0.0000  Tot=              0.3418
 Quadrupole moment (field-independent basis, Debye-Ang):
   XX=            -50.7907   YY=            -36.5416   ZZ=            -84.1432
   XY=             10.4101   XZ=              0.0000   YZ=              0.0000

 Normal termination of Gaussian 16 at Tue Aug  2 13:36:54 2022.
