 Gaussian 16, Revision C.01,
 Gaussian 16:  ES64L-G16RevC.01  3-Jul-2019

 ---------------------------------------------------------------
 #n M062X/6-311++G(d,p) TD(NStates=1) EmpiricalDispersion=GD3 SP
 ---------------------------------------------------------------

 -----
 SP_50
 -----
 Symbolic Z-matrix:
 Charge =  1 Multiplicity = 1

                         Standard orientation:
 ---------------------------------------------------------------------
 Center     Atomic      Atomic             Coordinates (Angstroms)
 Number     Number       Type             X           Y           Z
 ---------------------------------------------------------------------
      1          6           0        1.359832    2.494558    0.000000
      2          6           0        0.671640    3.702461    0.000000
      3          6           0       -0.714829    3.684464    0.000000
      4          6           0       -1.407737    2.463259    0.000000
      5          6           0       -1.407737   -2.463253    0.000000
      6          6           0       -0.714829   -3.684458    0.000000
      7          6           0        0.671640   -3.702455    0.000000
      8          6           0        1.359832   -2.494552    0.000000
      9          6           0        1.457770   -0.000047    0.000000
     10          6           0       -1.429388    0.000003    0.000000
     11          6           0        0.677116    1.262208    0.000000
     12          6           0       -0.730503    1.237074    0.000000
     13          6           0        0.677116   -1.262202    0.000000
     14          6           0       -0.730503   -1.237068    0.000000
     15          1           0        2.442998    2.490274    0.000000
     16          1           0        1.210940    4.637906    0.000000
     17          1           0       -1.273598    4.609565    0.000000
     18          1           0       -2.490208    2.467253    0.000000
     19          1           0       -2.510365    0.000003    0.000000
     20          1           0       -2.490208   -2.467247    0.000000
     21          1           0       -1.273598   -4.609559    0.000000
     22          1           0        1.210940   -4.637900    0.000000
     23          1           0        2.442998   -2.490268    0.000000
     24          1           0        2.146788    0.000003    0.860685
     25          1           0        2.146788    0.000003   -0.860685
 ---------------------------------------------------------------------

 SCF Done:  E(RM062X) =  -539.760269118     A.U. after   15 cycles

 Excitation energies and oscillator strengths:

 Excited State   1:      Singlet-A'     2.8232 eV  439.16 nm  f=0.0285  <S**2>=0.000
      47 -> 48         0.70426
 This state for optimization and/or second-order correction.
 Total Energy, E(TD-HF/TD-DFT) =  -539.656517249
 Copying the excited state density for this state as the 1-particle RhoCI density.

 The electronic state is 1-A'.
 Alpha  occ. eigenvalues --  -10.77674 -10.73267 -10.73266 -10.72445 -10.72443
 Alpha  occ. eigenvalues --  -10.71371 -10.71371 -10.71000 -10.71000 -10.70993
 Alpha  occ. eigenvalues --  -10.69973 -10.69973 -10.69636 -10.69636  -1.16417
 Alpha  occ. eigenvalues --   -1.12449  -1.06945  -1.05689  -1.01313  -1.00155
 Alpha  occ. eigenvalues --   -0.95786  -0.91046  -0.86415  -0.85892  -0.83808
 Alpha  occ. eigenvalues --   -0.78395  -0.76004  -0.74415  -0.69573  -0.69239
 Alpha  occ. eigenvalues --   -0.68496  -0.68183  -0.68110  -0.64733  -0.64273
 Alpha  occ. eigenvalues --   -0.63027  -0.61864  -0.60032  -0.59668  -0.59098
 Alpha  occ. eigenvalues --   -0.56884  -0.55221  -0.54820  -0.52441  -0.46610
 Alpha  occ. eigenvalues --   -0.46056  -0.44516
 Alpha virt. eigenvalues --   -0.26098  -0.14667  -0.14099  -0.12775  -0.11177
 Alpha virt. eigenvalues --   -0.10083  -0.09230  -0.07983  -0.07975  -0.07475
 Alpha virt. eigenvalues --   -0.07200  -0.07144  -0.05644  -0.05580  -0.05330

 Mulliken charges:
               1
     1  C    0.092353
     2  C   -0.406368
     3  C   -0.440085
     4  C    0.008730
     5  C    0.008709
     6  C   -0.440086
     7  C   -0.406398
     8  C    0.092307
     9  C   -0.344336
    10  C    0.087284
    11  C   -0.632798
    12  C    0.697321
    13  C   -0.632848
    14  C    0.697351
    15  H    0.237489
    16  H    0.256226
    17  H    0.248830
    18  H    0.222038
    19  H    0.190523
    20  H    0.222038
    21  H    0.248829
    22  H    0.256226
    23  H    0.237490
    24  H    0.249587
    25  H    0.249587
 Sum of Mulliken charges =   1.00000

 Dipole moment (field-independent basis, Debye):
    X=             -0.1911    Y=              0.0000    Z=              0.0000  Tot=              0.1911
 Quadrupole moment (field-independent basis, Debye-Ang):
   XX=            -56.2691   YY=            -31.0933   ZZ=            -84.1428
   XY=              0.0000   XZ=              0.0000   YZ=             -0.0000

 Normal termination of Gaussian 16 at Tue Aug  2 12:37:00 2022.
