 Gaussian 16, Revision C.01,
 Gaussian 16:  ES64L-G16RevC.01  3-Jul-2019

 ---------------------------------------------------------------
 #n M062X/6-311++G(d,p) TD(NStates=1) EmpiricalDispersion=GD3 SP
 ---------------------------------------------------------------

 ------
 SP_-75
 ------
 Symbolic Z-matrix:
 Charge =  1 Multiplicity = 1

                         Standard orientation:
 ---------------------------------------------------------------------
 Center     Atomic      Atomic             Coordinates (Angstroms)
 Number     Number       Type             X           Y           Z
 ---------------------------------------------------------------------
      1          6           0       -1.361329   -2.489800    0.000000
      2          6           0       -0.672512   -3.700078    0.000000
      3          6           0        0.712332   -3.682956    0.000000
      4          6           0        1.407240   -2.463001    0.000000
      5          6           0        1.407240    2.463011    0.000000
      6          6           0        0.712332    3.682966    0.000000
      7          6           0       -0.672512    3.700088    0.000000
      8          6           0       -1.361329    2.489810    0.000000
      9          6           0       -1.446767   -0.000070    0.000000
     10          6           0        1.428891    0.000005    0.000000
     11          6           0       -0.676988   -1.261825    0.000000
     12          6           0        0.731256   -1.238066    0.000000
     13          6           0       -0.676988    1.261835    0.000000
     14          6           0        0.731256    1.238076    0.000000
     15          1           0       -2.444620   -2.484766    0.000000
     16          1           0       -1.212812   -4.635023    0.000000
     17          1           0        1.270476   -4.608807    0.000000
     18          1           0        2.489836   -2.467995    0.000000
     19          1           0        2.510118    0.000005    0.000000
     20          1           0        2.489836    2.468005    0.000000
     21          1           0        1.270476    4.608817    0.000000
     22          1           0       -1.212812    4.635033    0.000000
     23          1           0       -2.444620    2.484776    0.000000
     24          1           0       -2.144285    0.000005    0.857935
     25          1           0       -2.144285    0.000005   -0.857935
 ---------------------------------------------------------------------

 SCF Done:  E(RM062X) =  -539.760116175     A.U. after   15 cycles

 Excitation energies and oscillator strengths:

 Excited State   1:      Singlet-A'     2.8221 eV  439.33 nm  f=0.0290  <S**2>=0.000
      47 -> 48         0.70426
 This state for optimization and/or second-order correction.
 Total Energy, E(TD-HF/TD-DFT) =  -539.656405621
 Copying the excited state density for this state as the 1-particle RhoCI density.

 The electronic state is 1-A'.
 Alpha  occ. eigenvalues --  -10.77652 -10.73201 -10.73201 -10.72423 -10.72421
 Alpha  occ. eigenvalues --  -10.71365 -10.71364 -10.71011 -10.71011 -10.70959
 Alpha  occ. eigenvalues --  -10.69971 -10.69971 -10.69619 -10.69619  -1.16481
 Alpha  occ. eigenvalues --   -1.12491  -1.06944  -1.05793  -1.01314  -1.00230
 Alpha  occ. eigenvalues --   -0.95777  -0.91072  -0.86423  -0.85916  -0.83828
 Alpha  occ. eigenvalues --   -0.78406  -0.76064  -0.74422  -0.69543  -0.69255
 Alpha  occ. eigenvalues --   -0.68518  -0.68208  -0.68091  -0.64748  -0.64301
 Alpha  occ. eigenvalues --   -0.63123  -0.61870  -0.59959  -0.59697  -0.59083
 Alpha  occ. eigenvalues --   -0.56916  -0.55203  -0.54868  -0.52433  -0.46648
 Alpha  occ. eigenvalues --   -0.46056  -0.44479
 Alpha virt. eigenvalues --   -0.26073  -0.14673  -0.14096  -0.12770  -0.11181
 Alpha virt. eigenvalues --   -0.10091  -0.09230  -0.07983  -0.07962  -0.07477
 Alpha virt. eigenvalues --   -0.07209  -0.07148  -0.05641  -0.05584  -0.05335

 Mulliken charges:
               1
     1  C    0.093442
     2  C   -0.406841
     3  C   -0.440169
     4  C    0.024511
     5  C    0.024544
     6  C   -0.440167
     7  C   -0.406795
     8  C    0.093509
     9  C   -0.318091
    10  C    0.101696
    11  C   -0.640211
    12  C    0.667149
    13  C   -0.640123
    14  C    0.667104
    15  H    0.236948
    16  H    0.256427
    17  H    0.248979
    18  H    0.221989
    19  H    0.190222
    20  H    0.221989
    21  H    0.248980
    22  H    0.256427
    23  H    0.236946
    24  H    0.250768
    25  H    0.250768
 Sum of Mulliken charges =   1.00000

 Dipole moment (field-independent basis, Debye):
    X=              0.1822    Y=              0.0000    Z=              0.0000  Tot=              0.1822
 Quadrupole moment (field-independent basis, Debye-Ang):
   XX=            -56.2530   YY=            -31.1508   ZZ=            -84.1405
   XY=             -0.0001   XZ=             -0.0000   YZ=             -0.0000

 Normal termination of Gaussian 16 at Tue Aug  2 11:20:29 2022.
