 Gaussian 16, Revision C.01,
 Gaussian 16:  ES64L-G16RevC.01  3-Jul-2019

 ---------------------------------------------------------------
 #n M062X/6-311++G(d,p) TD(NStates=1) EmpiricalDispersion=GD3 SP
 ---------------------------------------------------------------

 ------
 SP_-25
 ------
 Symbolic Z-matrix:
 Charge =  1 Multiplicity = 1

                         Standard orientation:
 ---------------------------------------------------------------------
 Center     Atomic      Atomic             Coordinates (Angstroms)
 Number     Number       Type             X           Y           Z
 ---------------------------------------------------------------------
      1          6           0       -1.360730   -2.491703    0.000000
      2          6           0       -0.672163   -3.701031    0.000000
      3          6           0        0.713331   -3.683559    0.000000
      4          6           0        1.407439   -2.463104    0.000000
      5          6           0        1.407439    2.463108    0.000000
      6          6           0        0.713331    3.683563    0.000000
      7          6           0       -0.672163    3.701035    0.000000
      8          6           0       -1.360730    2.491707    0.000000
      9          6           0       -1.451168   -0.000023    0.000000
     10          6           0        1.429090    0.000002    0.000000
     11          6           0       -0.677039   -1.261978    0.000000
     12          6           0        0.730955   -1.237669    0.000000
     13          6           0       -0.677039    1.261982    0.000000
     14          6           0        0.730955    1.237673    0.000000
     15          1           0       -2.443971   -2.486969    0.000000
     16          1           0       -1.212063   -4.636176    0.000000
     17          1           0        1.271725   -4.609110    0.000000
     18          1           0        2.489985   -2.467698    0.000000
     19          1           0        2.510217    0.000002    0.000000
     20          1           0        2.489985    2.467702    0.000000
     21          1           0        1.271725    4.609114    0.000000
     22          1           0       -1.212063    4.636180    0.000000
     23          1           0       -2.443971    2.486973    0.000000
     24          1           0       -2.145286    0.000002    0.859035
     25          1           0       -2.145286    0.000002   -0.859035
 ---------------------------------------------------------------------

 SCF Done:  E(RM062X) =  -539.760203023     A.U. after   15 cycles

 Excitation energies and oscillator strengths:

 Excited State   1:      Singlet-A'     2.8226 eV  439.25 nm  f=0.0288  <S**2>=0.000
      47 -> 48         0.70426
 This state for optimization and/or second-order correction.
 Total Energy, E(TD-HF/TD-DFT) =  -539.656474260
 Copying the excited state density for this state as the 1-particle RhoCI density.

 The electronic state is 1-A'.
 Alpha  occ. eigenvalues --  -10.77661 -10.73228 -10.73227 -10.72432 -10.72430
 Alpha  occ. eigenvalues --  -10.71367 -10.71367 -10.71007 -10.71007 -10.70972
 Alpha  occ. eigenvalues --  -10.69972 -10.69972 -10.69626 -10.69626  -1.16455
 Alpha  occ. eigenvalues --   -1.12474  -1.06945  -1.05752  -1.01314  -1.00200
 Alpha  occ. eigenvalues --   -0.95780  -0.91061  -0.86420  -0.85907  -0.83820
 Alpha  occ. eigenvalues --   -0.78402  -0.76040  -0.74419  -0.69555  -0.69249
 Alpha  occ. eigenvalues --   -0.68509  -0.68198  -0.68098  -0.64742  -0.64290
 Alpha  occ. eigenvalues --   -0.63084  -0.61868  -0.59988  -0.59685  -0.59090
 Alpha  occ. eigenvalues --   -0.56903  -0.55211  -0.54849  -0.52436  -0.46633
 Alpha  occ. eigenvalues --   -0.46056  -0.44494
 Alpha virt. eigenvalues --   -0.26083  -0.14670  -0.14097  -0.12772  -0.11180
 Alpha virt. eigenvalues --   -0.10088  -0.09230  -0.07983  -0.07968  -0.07476
 Alpha virt. eigenvalues --   -0.07205  -0.07147  -0.05642  -0.05582  -0.05333

 Mulliken charges:
               1
     1  C    0.093428
     2  C   -0.406866
     3  C   -0.440134
     4  C    0.017904
     5  C    0.017915
     6  C   -0.440133
     7  C   -0.406851
     8  C    0.093451
     9  C   -0.328667
    10  C    0.096197
    11  C   -0.637957
    12  C    0.679931
    13  C   -0.637930
    14  C    0.679916
    15  H    0.237175
    16  H    0.256344
    17  H    0.248919
    18  H    0.222001
    19  H    0.190341
    20  H    0.222001
    21  H    0.248919
    22  H    0.256344
    23  H    0.237174
    24  H    0.250289
    25  H    0.250289
 Sum of Mulliken charges =   1.00000

 Dipole moment (field-independent basis, Debye):
    X=              0.1858    Y=              0.0000    Z=              0.0000  Tot=              0.1858
 Quadrupole moment (field-independent basis, Debye-Ang):
   XX=            -56.2595   YY=            -31.1275   ZZ=            -84.1414
   XY=             -0.0000   XZ=             -0.0000   YZ=             -0.0000

 Normal termination of Gaussian 16 at Tue Aug  2 11:51:15 2022.
