 Gaussian 16, Revision C.01,
 Gaussian 16:  ES64L-G16RevC.01  3-Jul-2019

 ---------------------------------------------------------------
 #n M062X/6-311++G(d,p) TD(NStates=1) EmpiricalDispersion=GD3 SP
 ---------------------------------------------------------------

 -------
 SP_-100
 -------
 Symbolic Z-matrix:
 Charge =  1 Multiplicity = 1

                         Standard orientation:
 ---------------------------------------------------------------------
 Center     Atomic      Atomic             Coordinates (Angstroms)
 Number     Number       Type             X           Y           Z
 ---------------------------------------------------------------------
      1          6           0        0.024647    2.849667    0.000000
      2          6           0       -1.146185    3.600170    0.000000
      3          6           0       -2.350586    2.926249    0.000000
      4          6           0       -2.383907    1.503425    0.000000
      5          6           0       -0.085863   -2.853857    0.000000
      6          6           0        1.088049   -3.588507    0.000000
      7          6           0        2.318147   -2.940099    0.000000
      8          6           0        2.365842   -1.547406    0.000000
      9          6           0        1.275177    0.688115    0.000000
     10          6           0       -1.249865   -0.693156    0.000000
     11          6           0        0.000000    1.424893    0.000000
     12          6           0       -1.220990    0.740744    0.000000
     13          6           0        1.199102   -0.795918    0.000000
     14          6           0       -0.060094   -1.445948    0.000000
     15          1           0        0.987835    3.345919    0.000000
     16          1           0       -1.109881    4.678905    0.000000
     17          1           0       -3.286103    3.468539    0.000000
     18          1           0       -3.345964    1.006313    0.000000
     19          1           0       -2.205211   -1.199377    0.000000
     20          1           0       -1.042974   -3.359198    0.000000
     21          1           0        1.044942   -4.668548    0.000000
     22          1           0        3.235247   -3.511043    0.000000
     23          1           0        3.324176   -1.042672    0.000000
     24          1           0        1.878541    1.035466    0.858485
     25          1           0        1.878541    1.035466   -0.858485
 ---------------------------------------------------------------------

 SCF Done:  E(RM062X) =  -539.758402405     A.U. after   15 cycles

 Excitation energies and oscillator strengths:

 Excited State   1:      Singlet-A'     2.7710 eV  447.44 nm  f=0.0250  <S**2>=0.000
      47 -> 48         0.70381
 This state for optimization and/or second-order correction.
 Total Energy, E(TD-HF/TD-DFT) =  -539.656571142
 Copying the excited state density for this state as the 1-particle RhoCI density.

 The electronic state is 1-A'.
 Alpha  occ. eigenvalues --  -10.77633 -10.73498 -10.72923 -10.72649 -10.72182
 Alpha  occ. eigenvalues --  -10.71633 -10.71534 -10.71084 -10.70966 -10.70505
 Alpha  occ. eigenvalues --  -10.70102 -10.69842 -10.69786 -10.69458  -1.16496
 Alpha  occ. eigenvalues --   -1.12485  -1.06942  -1.05807  -1.01306  -1.00282
 Alpha  occ. eigenvalues --   -0.95716  -0.91060  -0.86428  -0.85909  -0.83814
 Alpha  occ. eigenvalues --   -0.78386  -0.76084  -0.74406  -0.69618  -0.69274
 Alpha  occ. eigenvalues --   -0.68454  -0.68165  -0.68091  -0.64924  -0.64270
 Alpha  occ. eigenvalues --   -0.62988  -0.61797  -0.60169  -0.59503  -0.59108
 Alpha  occ. eigenvalues --   -0.56924  -0.55236  -0.54763  -0.52435  -0.46850
 Alpha  occ. eigenvalues --   -0.46086  -0.44258
 Alpha virt. eigenvalues --   -0.26082  -0.14671  -0.14091  -0.12768  -0.11183
 Alpha virt. eigenvalues --   -0.10092  -0.09238  -0.07976  -0.07953  -0.07479
 Alpha virt. eigenvalues --   -0.07209  -0.07145  -0.05642  -0.05581  -0.05340

 Mulliken charges:
               1
     1  C    0.105733
     2  C   -0.410520
     3  C   -0.442345
     4  C    0.010692
     5  C    0.030693
     6  C   -0.436962
     7  C   -0.403871
     8  C    0.081509
     9  C   -0.325320
    10  C    0.096791
    11  C   -0.626822
    12  C    0.659422
    13  C   -0.649368
    14  C    0.690220
    15  H    0.235834
    16  H    0.254127
    17  H    0.247159
    18  H    0.220137
    19  H    0.190027
    20  H    0.223917
    21  H    0.250749
    22  H    0.258634
    23  H    0.238407
    24  H    0.250579
    25  H    0.250579
 Sum of Mulliken charges =   1.00000

 Dipole moment (field-independent basis, Debye):
    X=              0.1044    Y=             -0.5782    Z=              0.0000  Tot=              0.5876
 Quadrupole moment (field-independent basis, Debye-Ang):
   XX=            -50.9356   YY=            -36.4349   ZZ=            -84.1380
   XY=            -10.2792   XZ=              0.0000   YZ=              0.0000

 Normal termination of Gaussian 16 at Tue Aug  2 11:09:05 2022.
