 Gaussian 16, Revision C.01,
 Gaussian 16:  ES64L-G16RevC.01  3-Jul-2019

 ---------------------------------------------------------------
 #n M062X/6-311++G(d,p) TD(NStates=1) EmpiricalDispersion=GD3 SP
 ---------------------------------------------------------------

 ----
 SP_0
 ----
 Symbolic Z-matrix:
 Charge =  1 Multiplicity = 1

                         Standard orientation:
 ---------------------------------------------------------------------
 Center     Atomic      Atomic             Coordinates (Angstroms)
 Number     Number       Type             X           Y           Z
 ---------------------------------------------------------------------
      1          6           0        0.021521    2.849261    0.000000
      2          6           0       -1.150122    3.596037    0.000000
      3          6           0       -2.357260    2.922039    0.000000
      4          6           0       -2.389416    1.503918    0.000000
      5          6           0       -0.083622   -2.849647    0.000000
      6          6           0        1.093172   -3.588833    0.000000
      7          6           0        2.324243   -2.942667    0.000000
      8          6           0        2.369182   -1.551901    0.000000
      9          6           0        1.282434    0.690862    0.000000
     10          6           0       -1.252519   -0.688875    0.000000
     11          6           0        0.000000    1.426958    0.000000
     12          6           0       -1.222289    0.741524    0.000000
     13          6           0        1.197794   -0.795134    0.000000
     14          6           0       -0.059730   -1.442698    0.000000
     15          1           0        0.982827    3.348803    0.000000
     16          1           0       -1.115175    4.674890    0.000000
     17          1           0       -3.291408    3.466058    0.000000
     18          1           0       -3.349627    1.003640    0.000000
     19          1           0       -2.207073   -1.196215    0.000000
     20          1           0       -1.039650   -3.356973    0.000000
     21          1           0        1.046600   -4.668508    0.000000
     22          1           0        3.241095   -3.513693    0.000000
     23          1           0        3.326188   -1.044772    0.000000
     24          1           0        1.882956    1.030856    0.860410
     25          1           0        1.882956    1.030856   -0.860410
 ---------------------------------------------------------------------

 SCF Done:  E(RM062X) =  -539.759268997     A.U. after   15 cycles

 Excitation energies and oscillator strengths:

 Excited State   1:      Singlet-A'     2.7921 eV  444.06 nm  f=0.0260  <S**2>=0.000
      47 -> 48         0.70396
 This state for optimization and/or second-order correction.
 Total Energy, E(TD-HF/TD-DFT) =  -539.656662399
 Copying the excited state density for this state as the 1-particle RhoCI density.

 The electronic state is 1-A'.
 Alpha  occ. eigenvalues --  -10.77659 -10.73475 -10.73041 -10.72611 -10.72261
 Alpha  occ. eigenvalues --  -10.71572 -10.71393 -10.71161 -10.70990 -10.70621
 Alpha  occ. eigenvalues --  -10.70071 -10.69875 -10.69757 -10.69512  -1.16439
 Alpha  occ. eigenvalues --   -1.12454  -1.06944  -1.05719  -1.01309  -1.00201
 Alpha  occ. eigenvalues --   -0.95749  -0.91044  -0.86420  -0.85894  -0.83804
 Alpha  occ. eigenvalues --   -0.78386  -0.76029  -0.74407  -0.69608  -0.69254
 Alpha  occ. eigenvalues --   -0.68464  -0.68163  -0.68106  -0.64838  -0.64260
 Alpha  occ. eigenvalues --   -0.62974  -0.61821  -0.60137  -0.59563  -0.59109
 Alpha  occ. eigenvalues --   -0.56895  -0.55234  -0.54773  -0.52440  -0.46736
 Alpha  occ. eigenvalues --   -0.46078  -0.44375
 Alpha virt. eigenvalues --   -0.26098  -0.14667  -0.14095  -0.12773  -0.11179
 Alpha virt. eigenvalues --   -0.10085  -0.09235  -0.07979  -0.07967  -0.07476
 Alpha virt. eigenvalues --   -0.07202  -0.07142  -0.05644  -0.05579  -0.05334

 Mulliken charges:
               1
     1  C    0.101010
     2  C   -0.409044
     3  C   -0.442049
     4  C    0.003099
     5  C    0.016920
     6  C   -0.437487
     7  C   -0.404382
     8  C    0.083718
     9  C   -0.342792
    10  C    0.087498
    11  C   -0.623543
    12  C    0.685114
    13  C   -0.643103
    14  C    0.706014
    15  H    0.236507
    16  H    0.254546
    17  H    0.247505
    18  H    0.220676
    19  H    0.190351
    20  H    0.223425
    21  H    0.250194
    22  H    0.257942
    23  H    0.238439
    24  H    0.249720
    25  H    0.249720
 Sum of Mulliken charges =   1.00000

 Dipole moment (field-independent basis, Debye):
    X=              0.0320    Y=             -0.4591    Z=             -0.0000  Tot=              0.4602
 Quadrupole moment (field-independent basis, Debye-Ang):
   XX=            -50.8634   YY=            -36.4890   ZZ=            -84.1408
   XY=            -10.3441   XZ=              0.0000   YZ=              0.0000

 Normal termination of Gaussian 16 at Tue Aug  2 12:09:37 2022.
