 Gaussian 16, Revision C.01,
 Gaussian 16:  ES64L-G16RevC.01  3-Jul-2019

 ---------------------------------------------------------------
 #n M062X/6-311++G(d,p) TD(NStates=1) EmpiricalDispersion=GD3 SP
 ---------------------------------------------------------------

 ------
 SP_-25
 ------
 Symbolic Z-matrix:
 Charge =  1 Multiplicity = 1

                         Standard orientation:
 ---------------------------------------------------------------------
 Center     Atomic      Atomic             Coordinates (Angstroms)
 Number     Number       Type             X           Y           Z
 ---------------------------------------------------------------------
      1          6           0       -2.371345   -1.549395    0.000000
      2          6           0       -2.330041   -2.941577    0.000000
      3          6           0       -1.100615   -3.585590    0.000000
      4          6           0        0.080760   -2.844808    0.000000
      5          6           0        2.394240    1.504270    0.000000
      6          6           0        2.360035    2.917464    0.000000
      7          6           0        1.151630    3.589467    0.000000
      8          6           0       -0.023203    2.843972    0.000000
      9          6           0       -1.276024    0.686504    0.000000
     10          6           0        1.254523   -0.684353    0.000000
     11          6           0       -1.196131   -0.793903    0.000000
     12          6           0        0.059551   -1.441188    0.000000
     13          6           0        0.000000    1.428471    0.000000
     14          6           0        1.225224    0.742961    0.000000
     15          1           0       -3.326647   -1.038806    0.000000
     16          1           0       -3.247585   -3.511354    0.000000
     17          1           0       -1.051911   -4.665423    0.000000
     18          1           0        1.035165   -3.355495    0.000000
     19          1           0        2.208559   -1.193036    0.000000
     20          1           0        3.353384    1.001921    0.000000
     21          1           0        3.292573    3.464496    0.000000
     22          1           0        1.116541    4.668481    0.000000
     23          1           0       -0.983240    3.346016    0.000000
     24          1           0       -1.884228    1.024716    0.858485
     25          1           0       -1.884228    1.024716   -0.858485
 ---------------------------------------------------------------------

 SCF Done:  E(RM062X) =  -539.759706491     A.U. after   15 cycles

 Excitation energies and oscillator strengths:

 Excited State   1:      Singlet-A'     2.8084 eV  441.47 nm  f=0.0277  <S**2>=0.000
      47 -> 48         0.70410
 This state for optimization and/or second-order correction.
 Total Energy, E(TD-HF/TD-DFT) =  -539.656498268
 Copying the excited state density for this state as the 1-particle RhoCI density.

 The electronic state is 1-A'.
 Alpha  occ. eigenvalues --  -10.77651 -10.73357 -10.73069 -10.72541 -10.72307
 Alpha  occ. eigenvalues --  -10.71502 -10.71269 -10.71227 -10.70965 -10.70754
 Alpha  occ. eigenvalues --  -10.70036 -10.69907 -10.69705 -10.69540  -1.16475
 Alpha  occ. eigenvalues --   -1.12483  -1.06944  -1.05781  -1.01312  -1.00232
 Alpha  occ. eigenvalues --   -0.95763  -0.91065  -0.86423  -0.85911  -0.83821
 Alpha  occ. eigenvalues --   -0.78400  -0.76060  -0.74417  -0.69567  -0.69257
 Alpha  occ. eigenvalues --   -0.68498  -0.68193  -0.68094  -0.64794  -0.64287
 Alpha  occ. eigenvalues --   -0.63072  -0.61851  -0.60040  -0.59627  -0.59092
 Alpha  occ. eigenvalues --   -0.56913  -0.55216  -0.54833  -0.52435  -0.46695
 Alpha  occ. eigenvalues --   -0.46066  -0.44425
 Alpha virt. eigenvalues --   -0.26079  -0.14671  -0.14095  -0.12771  -0.11181
 Alpha virt. eigenvalues --   -0.10090  -0.09232  -0.07981  -0.07962  -0.07477
 Alpha virt. eigenvalues --   -0.07207  -0.07146  -0.05642  -0.05583  -0.05336

 Mulliken charges:
               1
     1  C    0.087073
     2  C   -0.405412
     3  C   -0.438630
     4  C    0.026082
     5  C    0.016094
     6  C   -0.441304
     7  C   -0.408690
     8  C    0.099372
     9  C   -0.323830
    10  C    0.098438
    11  C   -0.644878
    12  C    0.682530
    13  C   -0.633800
    14  C    0.666857
    15  H    0.237729
    16  H    0.257512
    17  H    0.249852
    18  H    0.222951
    19  H    0.190214
    20  H    0.221053
    21  H    0.248054
    22  H    0.255256
    23  H    0.236433
    24  H    0.250522
    25  H    0.250522
 Sum of Mulliken charges =   1.00000

 Dipole moment (field-independent basis, Debye):
    X=              0.0294    Y=             -0.3332    Z=             -0.0000  Tot=              0.3345
 Quadrupole moment (field-independent basis, Debye-Ang):
   XX=            -50.7901   YY=            -36.5992   ZZ=            -84.1401
   XY=             10.3683   XZ=              0.0000   YZ=             -0.0000

 Normal termination of Gaussian 16 at Tue Aug  2 11:49:05 2022.
