 Gaussian 16, Revision C.01,
 Gaussian 16:  ES64L-G16RevC.01  3-Jul-2019

 ---------------------------------------------------------------
 #n M062X/6-311++G(d,p) TD(NStates=1) EmpiricalDispersion=GD3 SP
 ---------------------------------------------------------------

 ------
 SP_150
 ------
 Symbolic Z-matrix:
 Charge =  1 Multiplicity = 1

                         Standard orientation:
 ---------------------------------------------------------------------
 Center     Atomic      Atomic             Coordinates (Angstroms)
 Number     Number       Type             X           Y           Z
 ---------------------------------------------------------------------
      1          6           0       -2.361167   -1.550426    0.000000
      2          6           0       -2.306444   -2.941218    0.000000
      3          6           0       -1.073775   -3.593941    0.000000
      4          6           0        0.091477   -2.863342    0.000000
      5          6           0        2.374062    1.502670    0.000000
      6          6           0        2.343866    2.935299    0.000000
      7          6           0        1.142396    3.612621    0.000000
      8          6           0       -0.022717    2.858864    0.000000
      9          6           0       -1.284132    0.694751    0.000000
     10          6           0        1.245720   -0.702137    0.000000
     11          6           0       -1.202313   -0.798279    0.000000
     12          6           0        0.060538   -1.449467    0.000000
     13          6           0        0.000000    1.421715    0.000000
     14          6           0        1.215597    0.738054    0.000000
     15          1           0       -3.322785   -1.052328    0.000000
     16          1           0       -3.222419   -3.514288    0.000000
     17          1           0       -1.035302   -4.673839    0.000000
     18          1           0        1.051664   -3.362334    0.000000
     19          1           0        2.202178   -1.205724    0.000000
     20          1           0        3.338464    1.010032    0.000000
     21          1           0        3.282552    3.471952    0.000000
     22          1           0        1.105937    4.691049    0.000000
     23          1           0       -0.988604    3.349866    0.000000
     24          1           0       -1.875163    1.047312    0.861235
     25          1           0       -1.875163    1.047312   -0.861235
 ---------------------------------------------------------------------

 SCF Done:  E(RM062X) =  -539.756365568     A.U. after   15 cycles

 Excitation energies and oscillator strengths:

 Excited State   1:      Singlet-A'     2.7159 eV  456.51 nm  f=0.0214  <S**2>=0.000
      47 -> 48         0.70362
 This state for optimization and/or second-order correction.
 Total Energy, E(TD-HF/TD-DFT) =  -539.656557716
 Copying the excited state density for this state as the 1-particle RhoCI density.

 The electronic state is 1-A'.
 Alpha  occ. eigenvalues --  -10.77627 -10.73707 -10.72838 -10.72773 -10.72075
 Alpha  occ. eigenvalues --  -10.71792 -10.71765 -10.71003 -10.70947 -10.70252
 Alpha  occ. eigenvalues --  -10.70171 -10.69882 -10.69778 -10.69394  -1.16467
 Alpha  occ. eigenvalues --   -1.12445  -1.06941  -1.05747  -1.01295  -1.00288
 Alpha  occ. eigenvalues --   -0.95650  -0.91025  -0.86428  -0.85883  -0.83781
 Alpha  occ. eigenvalues --   -0.78353  -0.76065  -0.74381  -0.69717  -0.69287
 Alpha  occ. eigenvalues --   -0.68367  -0.68106  -0.68096  -0.65077  -0.64230
 Alpha  occ. eigenvalues --   -0.62809  -0.61682  -0.60352  -0.59372  -0.59145
 Alpha  occ. eigenvalues --   -0.56909  -0.55259  -0.54628  -0.52444  -0.47048
 Alpha  occ. eigenvalues --   -0.46111  -0.44046
 Alpha virt. eigenvalues --   -0.26112  -0.14664  -0.14087  -0.12769  -0.11184
 Alpha virt. eigenvalues --   -0.10086  -0.09248  -0.07968  -0.07951  -0.07480
 Alpha virt. eigenvalues --   -0.07204  -0.07136  -0.05647  -0.05575  -0.05342

 Mulliken charges:
               1
     1  C    0.075378
     2  C   -0.401896
     3  C   -0.434247
     4  C    0.018222
     5  C   -0.008090
     6  C   -0.443837
     7  C   -0.411132
     8  C    0.108643
     9  C   -0.353718
    10  C    0.078791
    11  C   -0.647942
    12  C    0.722547
    13  C   -0.605196
    14  C    0.683776
    15  H    0.239609
    16  H    0.259578
    17  H    0.251488
    18  H    0.224827
    19  H    0.190044
    20  H    0.219449
    21  H    0.246135
    22  H    0.252797
    23  H    0.235787
    24  H    0.249494
    25  H    0.249494
 Sum of Mulliken charges =   1.00000

 Dipole moment (field-independent basis, Debye):
    X=             -0.2311    Y=             -0.8265    Z=             -0.0000  Tot=              0.8582
 Quadrupole moment (field-independent basis, Debye-Ang):
   XX=            -51.0796   YY=            -36.2184   ZZ=            -84.1367
   XY=             10.2265   XZ=              0.0000   YZ=             -0.0000

 Normal termination of Gaussian 16 at Tue Aug  2 13:32:28 2022.
