 Gaussian 16, Revision C.01,
 Gaussian 16:  ES64L-G16RevC.01  3-Jul-2019

 ---------------------------------------------------------------
 #n M062X/6-311++G(d,p) TD(NStates=1) EmpiricalDispersion=GD3 SP
 ---------------------------------------------------------------

 ------
 SP_100
 ------
 Symbolic Z-matrix:
 Charge =  1 Multiplicity = 1

                         Standard orientation:
 ---------------------------------------------------------------------
 Center     Atomic      Atomic             Coordinates (Angstroms)
 Number     Number       Type             X           Y           Z
 ---------------------------------------------------------------------
      1          6           0       -2.372201   -1.554397    0.000000
      2          6           0       -2.330270   -2.944189    0.000000
      3          6           0       -1.098971   -3.588143    0.000000
      4          6           0        0.081198   -2.845266    0.000000
      5          6           0        2.394729    1.504350    0.000000
      6          6           0        2.362817    2.917703    0.000000
      7          6           0        1.153363    3.591192    0.000000
      8          6           0       -0.019768    2.847448    0.000000
      9          6           0       -1.285703    0.691738    0.000000
     10          6           0        1.254986   -0.684541    0.000000
     11          6           0       -1.196391   -0.794231    0.000000
     12          6           0        0.059415   -1.439956    0.000000
     13          6           0        0.000000    1.428855    0.000000
     14          6           0        1.224053    0.742478    0.000000
     15          1           0       -3.327767   -1.044569    0.000000
     16          1           0       -3.247143   -3.514916    0.000000
     17          1           0       -1.049317   -4.667607    0.000000
     18          1           0        1.035985   -3.354972    0.000000
     19          1           0        2.208824   -1.193066    0.000000
     20          1           0        3.353313    1.001219    0.000000
     21          1           0        3.295531    3.463818    0.000000
     22          1           0        1.119347    4.670174    0.000000
     23          1           0       -0.979363    3.350054    0.000000
     24          1           0       -1.886482    1.025809    0.861235
     25          1           0       -1.886482    1.025809   -0.861235
 ---------------------------------------------------------------------

 SCF Done:  E(RM062X) =  -539.759820367     A.U. after   15 cycles

 Excitation energies and oscillator strengths:

 Excited State   1:      Singlet-A'     2.8089 eV  441.40 nm  f=0.0271  <S**2>=0.000
      47 -> 48         0.70410
 This state for optimization and/or second-order correction.
 Total Energy, E(TD-HF/TD-DFT) =  -539.656596271
 Copying the excited state density for this state as the 1-particle RhoCI density.

 The electronic state is 1-A'.
 Alpha  occ. eigenvalues --  -10.77673 -10.73424 -10.73133 -10.72563 -10.72329
 Alpha  occ. eigenvalues --  -10.71508 -10.71258 -10.71234 -10.71000 -10.70743
 Alpha  occ. eigenvalues --  -10.70039 -10.69908 -10.69721 -10.69558  -1.16411
 Alpha  occ. eigenvalues --   -1.12441  -1.06945  -1.05676  -1.01311  -1.00157
 Alpha  occ. eigenvalues --   -0.95771  -0.91039  -0.86415  -0.85887  -0.83801
 Alpha  occ. eigenvalues --   -0.78389  -0.76001  -0.74410  -0.69596  -0.69242
 Alpha  occ. eigenvalues --   -0.68476  -0.68167  -0.68113  -0.64777  -0.64259
 Alpha  occ. eigenvalues --   -0.62980  -0.61843  -0.60100  -0.59610  -0.59106
 Alpha  occ. eigenvalues --   -0.56881  -0.55231  -0.54787  -0.52443  -0.46658
 Alpha  occ. eigenvalues --   -0.46067  -0.44459
 Alpha virt. eigenvalues --   -0.26104  -0.14665  -0.14098  -0.12775  -0.11177
 Alpha virt. eigenvalues --   -0.10082  -0.09232  -0.07980  -0.07975  -0.07475
 Alpha virt. eigenvalues --   -0.07198  -0.07141  -0.05645  -0.05579  -0.05331

 Mulliken charges:
               1
     1  C    0.085695
     2  C   -0.404713
     3  C   -0.438289
     4  C    0.010278
     5  C    0.001380
     6  C   -0.441468
     7  C   -0.407809
     8  C    0.096941
     9  C   -0.349890
    10  C    0.083596
    11  C   -0.637568
    12  C    0.710343
    13  C   -0.624007
    14  C    0.696966
    15  H    0.238250
    16  H    0.257321
    17  H    0.249702
    18  H    0.222970
    19  H    0.190519
    20  H    0.221158
    21  H    0.247908
    22  H    0.255054
    23  H    0.236960
    24  H    0.249352
    25  H    0.249352
 Sum of Mulliken charges =   1.00000

 Dipole moment (field-independent basis, Debye):
    X=              0.0371    Y=             -0.3377    Z=             -0.0000  Tot=              0.3397
 Quadrupole moment (field-independent basis, Debye-Ang):
   XX=            -50.7905   YY=            -36.5577   ZZ=            -84.1424
   XY=             10.3984   XZ=              0.0000   YZ=              0.0000

 Normal termination of Gaussian 16 at Tue Aug  2 13:05:41 2022.
