 Gaussian 16, Revision C.01,
 Gaussian 16:  ES64L-G16RevC.01  3-Jul-2019

 ---------------------------------------------------------------
 #n M062X/6-311++G(d,p) TD(NStates=1) EmpiricalDispersion=GD3 SP
 ---------------------------------------------------------------

 ------
 SP_125
 ------
 Symbolic Z-matrix:
 Charge =  1 Multiplicity = 1

                         Standard orientation:
 ---------------------------------------------------------------------
 Center     Atomic      Atomic             Coordinates (Angstroms)
 Number     Number       Type             X           Y           Z
 ---------------------------------------------------------------------
      1          6           0        1.358934    2.497413    0.000000
      2          6           0        0.671117    3.703891    0.000000
      3          6           0       -0.716327    3.685369    0.000000
      4          6           0       -1.408035    2.463414    0.000000
      5          6           0       -1.408035   -2.463398    0.000000
      6          6           0       -0.716327   -3.685353    0.000000
      7          6           0        0.671117   -3.703875    0.000000
      8          6           0        1.358934   -2.497397    0.000000
      9          6           0        1.464372   -0.000117    0.000000
     10          6           0       -1.429686    0.000008    0.000000
     11          6           0        0.677193    1.262438    0.000000
     12          6           0       -0.730051    1.236479    0.000000
     13          6           0        0.677193   -1.262422    0.000000
     14          6           0       -0.730051   -1.236463    0.000000
     15          1           0        2.442025    2.493579    0.000000
     16          1           0        1.209817    4.639636    0.000000
     17          1           0       -1.275471    4.610020    0.000000
     18          1           0       -2.490431    2.466808    0.000000
     19          1           0       -2.510513    0.000008    0.000000
     20          1           0       -2.490431   -2.466792    0.000000
     21          1           0       -1.275471   -4.610004    0.000000
     22          1           0        1.209817   -4.639620    0.000000
     23          1           0        2.442025   -2.493563    0.000000
     24          1           0        2.148290    0.000008    0.862335
     25          1           0        2.148290    0.000008   -0.862335
 ---------------------------------------------------------------------

 SCF Done:  E(RM062X) =  -539.760258657     A.U. after   14 cycles

 Excitation energies and oscillator strengths:

 Excited State   1:      Singlet-A'     2.8237 eV  439.08 nm  f=0.0282  <S**2>=0.000
      47 -> 48         0.70426
 This state for optimization and/or second-order correction.
 Total Energy, E(TD-HF/TD-DFT) =  -539.656488716
 Copying the excited state density for this state as the 1-particle RhoCI density.

 The electronic state is 1-A'.
 Alpha  occ. eigenvalues --  -10.77687 -10.73307 -10.73306 -10.72458 -10.72457
 Alpha  occ. eigenvalues --  -10.71375 -10.71375 -10.71015 -10.70994 -10.70994
 Alpha  occ. eigenvalues --  -10.69974 -10.69974 -10.69647 -10.69647  -1.16379
 Alpha  occ. eigenvalues --   -1.12423  -1.06946  -1.05626  -1.01312  -1.00110
 Alpha  occ. eigenvalues --   -0.95791  -0.91031  -0.86410  -0.85878  -0.83796
 Alpha  occ. eigenvalues --   -0.78389  -0.75968  -0.74411  -0.69590  -0.69230
 Alpha  occ. eigenvalues --   -0.68483  -0.68167  -0.68123  -0.64724  -0.64256
 Alpha  occ. eigenvalues --   -0.62970  -0.61860  -0.60076  -0.59650  -0.59106
 Alpha  occ. eigenvalues --   -0.56864  -0.55231  -0.54790  -0.52446  -0.46588
 Alpha  occ. eigenvalues --   -0.46055  -0.44537
 Alpha virt. eigenvalues --   -0.26113  -0.14663  -0.14100  -0.12778  -0.11175
 Alpha virt. eigenvalues --   -0.10078  -0.09230  -0.07983  -0.07982  -0.07474
 Alpha virt. eigenvalues --   -0.07195  -0.07140  -0.05646  -0.05578  -0.05328

 Mulliken charges:
               1
     1  C    0.090147
     2  C   -0.405343
     3  C   -0.440057
     4  C    0.000458
     5  C    0.000406
     6  C   -0.440060
     7  C   -0.405417
     8  C    0.090034
     9  C   -0.359520
    10  C    0.077839
    11  C   -0.625710
    12  C    0.712503
    13  C   -0.625823
    14  C    0.712576
    15  H    0.237769
    16  H    0.256116
    17  H    0.248745
    18  H    0.222093
    19  H    0.190708
    20  H    0.222093
    21  H    0.248743
    22  H    0.256116
    23  H    0.237772
    24  H    0.248907
    25  H    0.248907
 Sum of Mulliken charges =   1.00000

 Dipole moment (field-independent basis, Debye):
    X=             -0.1963    Y=              0.0000    Z=              0.0000  Tot=              0.1963
 Quadrupole moment (field-independent basis, Debye-Ang):
   XX=            -56.2787   YY=            -31.0598   ZZ=            -84.1441
   XY=              0.0001   XZ=              0.0000   YZ=              0.0000

 Normal termination of Gaussian 16 at Tue Aug  2 13:23:24 2022.
