 Gaussian 16, Revision C.01,
 Gaussian 16:  ES64L-G16RevC.01  3-Jul-2019

 ---------------------------------------------------------------
 #n M062X/6-311++G(d,p) TD(NStates=1) EmpiricalDispersion=GD3 SP
 ---------------------------------------------------------------

 -------
 SP_-125
 -------
 Symbolic Z-matrix:
 Charge =  1 Multiplicity = 1

                         Standard orientation:
 ---------------------------------------------------------------------
 Center     Atomic      Atomic             Coordinates (Angstroms)
 Number     Number       Type             X           Y           Z
 ---------------------------------------------------------------------
      1          6           0        0.026139    2.855370    0.000000
      2          6           0       -1.140671    3.610882    0.000000
      3          6           0       -2.341086    2.935042    0.000000
      4          6           0       -2.373571    1.502580    0.000000
      5          6           0       -0.091030   -2.862891    0.000000
      6          6           0        1.075435   -3.591397    0.000000
      7          6           0        2.306231   -2.938609    0.000000
      8          6           0        2.360333   -1.545423    0.000000
      9          6           0        1.274391    0.689634    0.000000
     10          6           0       -1.245251   -0.701957    0.000000
     11          6           0        0.000000    1.421325    0.000000
     12          6           0       -1.216763    0.738534    0.000000
     13          6           0        1.202058   -0.797954    0.000000
     14          6           0       -0.060672   -1.450704    0.000000
     15          1           0        0.992465    3.345811    0.000000
     16          1           0       -1.103142    4.689338    0.000000
     17          1           0       -3.279595    3.472610    0.000000
     18          1           0       -3.338531    1.010724    0.000000
     19          1           0       -2.201908   -1.205703    0.000000
     20          1           0       -1.050838   -3.362867    0.000000
     21          1           0        1.037913   -4.671668    0.000000
     22          1           0        3.222880   -3.510728    0.000000
     23          1           0        3.321688   -1.046562    0.000000
     24          1           0        1.872905    1.046224    0.858485
     25          1           0        1.872905    1.046224   -0.858485
 ---------------------------------------------------------------------

 SCF Done:  E(RM062X) =  -539.756223895     A.U. after   15 cycles

 Excitation energies and oscillator strengths:

 Excited State   1:      Singlet-A'     2.7181 eV  456.14 nm  f=0.0222  <S**2>=0.000
      47 -> 48         0.70358
 This state for optimization and/or second-order correction.
 Total Energy, E(TD-HF/TD-DFT) =  -539.656335817
 Copying the excited state density for this state as the 1-particle RhoCI density.

 The electronic state is 1-A'.
 Alpha  occ. eigenvalues --  -10.77604 -10.73637 -10.72776 -10.72750 -10.72053
 Alpha  occ. eigenvalues --  -10.71803 -10.71760 -10.70968 -10.70939 -10.70262
 Alpha  occ. eigenvalues --  -10.70166 -10.69867 -10.69778 -10.69376  -1.16531
 Alpha  occ. eigenvalues --   -1.12489  -1.06939  -1.05850  -1.01297  -1.00361
 Alpha  occ. eigenvalues --   -0.95644  -0.91051  -0.86436  -0.85906  -0.83801
 Alpha  occ. eigenvalues --   -0.78364  -0.76123  -0.74389  -0.69695  -0.69299
 Alpha  occ. eigenvalues --   -0.68388  -0.68121  -0.68088  -0.65102  -0.64255
 Alpha  occ. eigenvalues --   -0.62876  -0.61707  -0.60313  -0.59368  -0.59133
 Alpha  occ. eigenvalues --   -0.56939  -0.55255  -0.54663  -0.52436  -0.47079
 Alpha  occ. eigenvalues --   -0.46105  -0.44023
 Alpha virt. eigenvalues --   -0.26088  -0.14670  -0.14084  -0.12763  -0.11188
 Alpha virt. eigenvalues --   -0.10094  -0.09248  -0.07969  -0.07938  -0.07482
 Alpha virt. eigenvalues --   -0.07212  -0.07142  -0.05643  -0.05579  -0.05347

 Mulliken charges:
               1
     1  C    0.112327
     2  C   -0.412408
     3  C   -0.443209
     4  C    0.005202
     5  C    0.034848
     6  C   -0.435062
     7  C   -0.402447
     8  C    0.076221
     9  C   -0.327842
    10  C    0.094008
    11  C   -0.618525
    12  C    0.652464
    13  C   -0.653534
    14  C    0.697720
    15  H    0.235271
    16  H    0.253003
    17  H    0.246268
    18  H    0.219253
    19  H    0.189718
    20  H    0.224883
    21  H    0.251643
    22  H    0.259749
    23  H    0.239102
    24  H    0.250673
    25  H    0.250673
 Sum of Mulliken charges =   1.00000

 Dipole moment (field-independent basis, Debye):
    X=              0.2387    Y=             -0.8216    Z=              0.0000  Tot=              0.8556
 Quadrupole moment (field-independent basis, Debye-Ang):
   XX=            -51.0794   YY=            -36.2599   ZZ=            -84.1344
   XY=            -10.1962   XZ=              0.0000   YZ=              0.0000

 Normal termination of Gaussian 16 at Tue Aug  2 10:55:36 2022.
