 Gaussian 16, Revision C.01,
 Gaussian 16:  ES64L-G16RevC.01  3-Jul-2019

 ---------------------------------------------------------------
 #n M062X/6-311++G(d,p) TD(NStates=1) EmpiricalDispersion=GD3 SP
 ---------------------------------------------------------------

 ----
 SP_0
 ----
 Symbolic Z-matrix:
 Charge =  1 Multiplicity = 1

                         Standard orientation:
 ---------------------------------------------------------------------
 Center     Atomic      Atomic             Coordinates (Angstroms)
 Number     Number       Type             X           Y           Z
 ---------------------------------------------------------------------
      1          6           0        2.490549   -1.370932    0.000000
      2          6           0        3.702814   -0.689710    0.000000
      3          6           0        3.688115    0.695011    0.000000
      4          6           0        2.465254    1.394647    0.000000
      5          6           0       -2.461042    1.420536    0.000000
      6          6           0       -3.679811    0.733126    0.000000
      7          6           0       -3.700592   -0.654116    0.000000
      8          6           0       -2.495666   -1.349634    0.000000
      9          6           0       -0.004216   -1.454465    0.000000
     10          6           0        0.000000    1.429252    0.000000
     11          6           0        1.258153   -0.680622    0.000000
     12          6           0        1.237932    0.725073    0.000000
     13          6           0       -1.266025   -0.673513    0.000000
     14          6           0       -1.236784    0.736393    0.000000
     15          1           0        2.478973   -2.454133    0.000000
     16          1           0        4.635814   -1.233032    0.000000
     17          1           0        4.613991    1.252799    0.000000
     18          1           0        2.476313    2.477180    0.000000
     19          1           0        0.005158    2.510292    0.000000
     20          1           0       -2.458572    2.502982    0.000000
     21          1           0       -4.604598    1.292506    0.000000
     22          1           0       -4.638167   -1.189984    0.000000
     23          1           0       -2.498224   -2.432799    0.000000
     24          1           0       -0.001387   -2.146051    0.859860
     25          1           0       -0.001387   -2.146051   -0.859860
 ---------------------------------------------------------------------

 SCF Done:  E(RM062X) =  -539.760136979     A.U. after   15 cycles

 Excitation energies and oscillator strengths:

 Excited State   1:      Singlet-A'     2.8193 eV  439.77 nm  f=0.0283  <S**2>=0.000
      47 -> 48         0.70422
 This state for optimization and/or second-order correction.
 Total Energy, E(TD-HF/TD-DFT) =  -539.656529672
 Copying the excited state density for this state as the 1-particle RhoCI density.

 The electronic state is 1-A'.
 Alpha  occ. eigenvalues --  -10.77666 -10.73319 -10.73174 -10.72495 -10.72378
 Alpha  occ. eigenvalues --  -10.71437 -10.71300 -10.71133 -10.70983 -10.70876
 Alpha  occ. eigenvalues --  -10.70005 -10.69940 -10.69672 -10.69590  -1.16438
 Alpha  occ. eigenvalues --   -1.12461  -1.06945  -1.05723  -1.01313  -1.00182
 Alpha  occ. eigenvalues --   -0.95779  -0.91053  -0.86418  -0.85899  -0.83814
 Alpha  occ. eigenvalues --   -0.78397  -0.76024  -0.74416  -0.69568  -0.69245
 Alpha  occ. eigenvalues --   -0.68499  -0.68188  -0.68104  -0.64750  -0.64279
 Alpha  occ. eigenvalues --   -0.63048  -0.61861  -0.60027  -0.59660  -0.59095
 Alpha  occ. eigenvalues --   -0.56894  -0.55218  -0.54828  -0.52439  -0.46635
 Alpha  occ. eigenvalues --   -0.46059  -0.44489
 Alpha virt. eigenvalues --   -0.26091  -0.14668  -0.14098  -0.12774  -0.11179
 Alpha virt. eigenvalues --   -0.10085  -0.09230  -0.07983  -0.07971  -0.07476
 Alpha virt. eigenvalues --   -0.07203  -0.07145  -0.05643  -0.05581  -0.05332

 Mulliken charges:
               1
     1  C    0.095959
     2  C   -0.407506
     3  C   -0.440814
     4  C    0.010762
     5  C    0.015578
     6  C   -0.439343
     7  C   -0.405910
     8  C    0.090155
     9  C   -0.336665
    10  C    0.091678
    11  C   -0.632400
    12  C    0.685282
    13  C   -0.638630
    14  C    0.692525
    15  H    0.237018
    16  H    0.255717
    17  H    0.248426
    18  H    0.221556
    19  H    0.190416
    20  H    0.222483
    21  H    0.249322
    22  H    0.256851
    23  H    0.237661
    24  H    0.249940
    25  H    0.249940
 Sum of Mulliken charges =   1.00000

 Dipole moment (field-independent basis, Debye):
    X=             -0.1393    Y=              0.1888    Z=              0.0000  Tot=              0.2346
 Quadrupole moment (field-independent basis, Debye-Ang):
   XX=            -31.1095   YY=            -56.2636   ZZ=            -84.1419
   XY=             -0.1768   XZ=              0.0000   YZ=              0.0000

 Normal termination of Gaussian 16 at Tue Aug  2 12:07:26 2022.
