 Gaussian 16, Revision C.01,
 Gaussian 16:  ES64L-G16RevC.01  3-Jul-2019

 ---------------------------------------------------------------
 #n M062X/6-311++G(d,p) TD(NStates=1) EmpiricalDispersion=GD3 SP
 ---------------------------------------------------------------

 ------
 SP_100
 ------
 Symbolic Z-matrix:
 Charge =  1 Multiplicity = 1

                         Standard orientation:
 ---------------------------------------------------------------------
 Center     Atomic      Atomic             Coordinates (Angstroms)
 Number     Number       Type             X           Y           Z
 ---------------------------------------------------------------------
      1          6           0       -2.363672   -1.549915    0.000000
      2          6           0       -2.312338   -2.941182    0.000000
      3          6           0       -1.080583   -3.591736    0.000000
      4          6           0        0.088755   -2.858689    0.000000
      5          6           0        2.379083    1.503070    0.000000
      6          6           0        2.347787    2.930828    0.000000
      7          6           0        1.144643    3.606744    0.000000
      8          6           0       -0.022991    2.854963    0.000000
      9          6           0       -1.281612    0.692437    0.000000
     10          6           0        1.247882   -0.697679    0.000000
     11          6           0       -1.200758   -0.797160    0.000000
     12          6           0        0.060288   -1.447458    0.000000
     13          6           0        0.000000    1.423383    0.000000
     14          6           0        1.218059    0.739307    0.000000
     15          1           0       -3.323703   -1.048651    0.000000
     16          1           0       -3.228742   -3.513379    0.000000
     17          1           0       -1.039603   -4.671628    0.000000
     18          1           0        1.047483   -3.360660    0.000000
     19          1           0        2.203746   -1.202552    0.000000
     20          1           0        3.342202    1.008037    0.000000
     21          1           0        3.284921    3.470114    0.000000
     22          1           0        1.108476    4.685320    0.000000
     23          1           0       -0.987442    3.348704    0.000000
     24          1           0       -1.877296    1.041608    0.860410
     25          1           0       -1.877296    1.041608   -0.860410
 ---------------------------------------------------------------------

 SCF Done:  E(RM062X) =  -539.757537890     A.U. after   15 cycles

 Excitation energies and oscillator strengths:

 Excited State   1:      Singlet-A'     2.7450 eV  451.68 nm  f=0.0231  <S**2>=0.000
      47 -> 48         0.70370
 This state for optimization and/or second-order correction.
 Total Energy, E(TD-HF/TD-DFT) =  -539.656662571
 Copying the excited state density for this state as the 1-particle RhoCI density.

 The electronic state is 1-A'.
 Alpha  occ. eigenvalues --  -10.77636 -10.73616 -10.72893 -10.72716 -10.72134
 Alpha  occ. eigenvalues --  -10.71701 -10.71660 -10.71017 -10.70991 -10.70376
 Alpha  occ. eigenvalues --  -10.70137 -10.69838 -10.69810 -10.69430  -1.16467
 Alpha  occ. eigenvalues --   -1.12457  -1.06942  -1.05754  -1.01301  -1.00267
 Alpha  occ. eigenvalues --   -0.95688  -0.91038  -0.86426  -0.85891  -0.83794
 Alpha  occ. eigenvalues --   -0.78368  -0.76061  -0.74393  -0.69671  -0.69276
 Alpha  occ. eigenvalues --   -0.68409  -0.68127  -0.68103  -0.64993  -0.64245
 Alpha  occ. eigenvalues --   -0.62882  -0.61743  -0.60269  -0.59438  -0.59129
 Alpha  occ. eigenvalues --   -0.56909  -0.55251  -0.54690  -0.52441  -0.46934
 Alpha  occ. eigenvalues --   -0.46100  -0.44165
 Alpha virt. eigenvalues --   -0.26102  -0.14666  -0.14090  -0.12770  -0.11183
 Alpha virt. eigenvalues --   -0.10087  -0.09242  -0.07973  -0.07955  -0.07479
 Alpha virt. eigenvalues --   -0.07204  -0.07140  -0.05645  -0.05577  -0.05340

 Mulliken charges:
               1
     1  C    0.078507
     2  C   -0.402931
     3  C   -0.435531
     4  C    0.021038
     5  C   -0.001872
     6  C   -0.443171
     7  C   -0.410774
     8  C    0.107013
     9  C   -0.344747
    10  C    0.085137
    11  C   -0.647986
    12  C    0.712538
    13  C   -0.614699
    14  C    0.678376
    15  H    0.239121
    16  H    0.259068
    17  H    0.251088
    18  H    0.224366
    19  H    0.190110
    20  H    0.219808
    21  H    0.246616
    22  H    0.253417
    23  H    0.235922
    24  H    0.249792
    25  H    0.249792
 Sum of Mulliken charges =   1.00000

 Dipole moment (field-independent basis, Debye):
    X=             -0.1661    Y=             -0.7035    Z=             -0.0000  Tot=              0.7229
 Quadrupole moment (field-independent basis, Debye-Ang):
   XX=            -51.0079   YY=            -36.3194   ZZ=            -84.1380
   XY=             10.2582   XZ=              0.0000   YZ=             -0.0000

 Normal termination of Gaussian 16 at Tue Aug  2 13:02:19 2022.
