 Gaussian 16, Revision C.01,
 Gaussian 16:  ES64L-G16RevC.01  3-Jul-2019

 ---------------------------------------------------------------
 #n M062X/6-311++G(d,p) TD(NStates=1) EmpiricalDispersion=GD3 SP
 ---------------------------------------------------------------

 -----
 SP_75
 -----
 Symbolic Z-matrix:
 Charge =  1 Multiplicity = 1

                         Standard orientation:
 ---------------------------------------------------------------------
 Center     Atomic      Atomic             Coordinates (Angstroms)
 Number     Number       Type             X           Y           Z
 ---------------------------------------------------------------------
      1          6           0        0.019087    2.848154    0.000000
      2          6           0       -1.153701    3.591553    0.000000
      3          6           0       -2.363367    2.917771    0.000000
      4          6           0       -2.394827    1.504387    0.000000
      5          6           0       -0.081303   -2.845346    0.000000
      6          6           0        1.098622   -3.588647    0.000000
      7          6           0        2.330297   -2.944709    0.000000
      8          6           0        2.372359   -1.555396    0.000000
      9          6           0        1.287729    0.692614    0.000000
     10          6           0       -1.255088   -0.684563    0.000000
     11          6           0        0.000000    1.428943    0.000000
     12          6           0       -1.223822    0.742398    0.000000
     13          6           0        1.196433   -0.794290    0.000000
     14          6           0       -0.059400   -1.439698    0.000000
     15          1           0        0.978596    3.350869    0.000000
     16          1           0       -1.119894    4.670529    0.000000
     17          1           0       -3.296114    3.463708    0.000000
     18          1           0       -3.353300    1.001104    0.000000
     19          1           0       -2.208888   -1.193052    0.000000
     20          1           0       -1.036169   -3.354852    0.000000
     21          1           0        1.048773   -4.668037    0.000000
     22          1           0        3.247035   -3.515631    0.000000
     23          1           0        3.327981   -1.045725    0.000000
     24          1           0        1.886931    1.026030    0.861785
     25          1           0        1.886931    1.026030   -0.861785
 ---------------------------------------------------------------------

 SCF Done:  E(RM062X) =  -539.759818078     A.U. after   15 cycles

 Excitation energies and oscillator strengths:

 Excited State   1:      Singlet-A'     2.8089 eV  441.39 nm  f=0.0270  <S**2>=0.000
      47 -> 48         0.70410
 This state for optimization and/or second-order correction.
 Total Energy, E(TD-HF/TD-DFT) =  -539.656592057
 Copying the excited state density for this state as the 1-particle RhoCI density.

 The electronic state is 1-A'.
 Alpha  occ. eigenvalues --  -10.77678 -10.73437 -10.73147 -10.72567 -10.72334
 Alpha  occ. eigenvalues --  -10.71509 -10.71256 -10.71235 -10.71007 -10.70741
 Alpha  occ. eigenvalues --  -10.70040 -10.69908 -10.69725 -10.69562  -1.16399
 Alpha  occ. eigenvalues --   -1.12433  -1.06945  -1.05655  -1.01310  -1.00142
 Alpha  occ. eigenvalues --   -0.95773  -0.91034  -0.86413  -0.85882  -0.83798
 Alpha  occ. eigenvalues --   -0.78386  -0.75989  -0.74409  -0.69601  -0.69240
 Alpha  occ. eigenvalues --   -0.68472  -0.68162  -0.68118  -0.64774  -0.64254
 Alpha  occ. eigenvalues --   -0.62962  -0.61840  -0.60112  -0.59607  -0.59109
 Alpha  occ. eigenvalues --   -0.56874  -0.55233  -0.54778  -0.52444  -0.46651
 Alpha  occ. eigenvalues --   -0.46068  -0.44465
 Alpha virt. eigenvalues --   -0.26109  -0.14664  -0.14099  -0.12776  -0.11176
 Alpha virt. eigenvalues --   -0.10080  -0.09232  -0.07980  -0.07977  -0.07475
 Alpha virt. eigenvalues --   -0.07197  -0.07140  -0.05646  -0.05578  -0.05330

 Mulliken charges:
               1
     1  C    0.096174
     2  C   -0.407398
     3  C   -0.441497
     4  C   -0.001223
     5  C    0.007374
     6  C   -0.438236
     7  C   -0.404452
     8  C    0.084941
     9  C   -0.354946
    10  C    0.080443
    11  C   -0.621323
    12  C    0.702161
    13  C   -0.635534
    14  C    0.715267
    15  H    0.237051
    16  H    0.255016
    17  H    0.247882
    18  H    0.221185
    19  H    0.190582
    20  H    0.222980
    21  H    0.249671
    22  H    0.257286
    23  H    0.238345
    24  H    0.249126
    25  H    0.249126
 Sum of Mulliken charges =   1.00000

 Dipole moment (field-independent basis, Debye):
    X=             -0.0386    Y=             -0.3385    Z=             -0.0000  Tot=              0.3407
 Quadrupole moment (field-independent basis, Debye-Ang):
   XX=            -50.7908   YY=            -36.5494   ZZ=            -84.1428
   XY=            -10.4041   XZ=             -0.0000   YZ=             -0.0000

 Normal termination of Gaussian 16 at Tue Aug  2 12:54:31 2022.
