 Gaussian 16, Revision C.01,
 Gaussian 16:  ES64L-G16RevC.01  3-Jul-2019

 ---------------------------------------------------------------
 #n M062X/6-311++G(d,p) TD(NStates=1) EmpiricalDispersion=GD3 SP
 ---------------------------------------------------------------

 ------
 SP_-50
 ------
 Symbolic Z-matrix:
 Charge =  1 Multiplicity = 1

                         Standard orientation:
 ---------------------------------------------------------------------
 Center     Atomic      Atomic             Coordinates (Angstroms)
 Number     Number       Type             X           Y           Z
 ---------------------------------------------------------------------
      1          6           0       -2.368334   -1.546899    0.000000
      2          6           0       -2.324023   -2.940056    0.000000
      3          6           0       -1.094825   -3.586284    0.000000
      4          6           0        0.083178   -2.849193    0.000000
      5          6           0        2.388927    1.503830    0.000000
      6          6           0        2.354480    2.921790    0.000000
      7          6           0        1.148394    3.594304    0.000000
      8          6           0       -0.024951    2.845778    0.000000
      9          6           0       -1.272717    0.685699    0.000000
     10          6           0        1.252052   -0.688693    0.000000
     11          6           0       -1.197538   -0.794808    0.000000
     12          6           0        0.059863   -1.443935    0.000000
     13          6           0        0.000000    1.426569    0.000000
     14          6           0        1.223458    0.742002    0.000000
     15          1           0       -3.325076   -1.039008    0.000000
     16          1           0       -3.241546   -3.510131    0.000000
     17          1           0       -1.049205   -4.666329    0.000000
     18          1           0        1.038823   -3.357503    0.000000
     19          1           0        2.206804   -1.196193    0.000000
     20          1           0        3.349697    1.004334    0.000000
     21          1           0        3.288453    3.466724    0.000000
     22          1           0        1.112376    4.673188    0.000000
     23          1           0       -0.986698    3.344759    0.000000
     24          1           0       -1.880701    1.029764    0.857660
     25          1           0       -1.880701    1.029764   -0.857660
 ---------------------------------------------------------------------

 SCF Done:  E(RM062X) =  -539.759086647     A.U. after   15 cycles

 Excitation energies and oscillator strengths:

 Excited State   1:      Singlet-A'     2.7921 eV  444.05 nm  f=0.0266  <S**2>=0.000
      47 -> 48         0.70395
 This state for optimization and/or second-order correction.
 Total Energy, E(TD-HF/TD-DFT) =  -539.656478183
 Copying the excited state density for this state as the 1-particle RhoCI density.

 The electronic state is 1-A'.
 Alpha  occ. eigenvalues --  -10.77637 -10.73407 -10.72978 -10.72589 -10.72239
 Alpha  occ. eigenvalues --  -10.71566 -10.71404 -10.71153 -10.70956 -10.70632
 Alpha  occ. eigenvalues --  -10.70068 -10.69874 -10.69741 -10.69493  -1.16503
 Alpha  occ. eigenvalues --   -1.12497  -1.06943  -1.05823  -1.01310  -1.00275
 Alpha  occ. eigenvalues --   -0.95741  -0.91071  -0.86428  -0.85917  -0.83824
 Alpha  occ. eigenvalues --   -0.78397  -0.76088  -0.74415  -0.69581  -0.69269
 Alpha  occ. eigenvalues --   -0.68485  -0.68188  -0.68088  -0.64857  -0.64287
 Alpha  occ. eigenvalues --   -0.63062  -0.61831  -0.60087  -0.59569  -0.59095
 Alpha  occ. eigenvalues --   -0.56927  -0.55222  -0.54815  -0.52433  -0.46772
 Alpha  occ. eigenvalues --   -0.46075  -0.44342
 Alpha virt. eigenvalues --   -0.26073  -0.14673  -0.14093  -0.12768  -0.11183
 Alpha virt. eigenvalues --   -0.10093  -0.09234  -0.07979  -0.07954  -0.07478
 Alpha virt. eigenvalues --   -0.07211  -0.07147  -0.05641  -0.05583  -0.05339

 Mulliken charges:
               1
     1  C    0.083884
     2  C   -0.404489
     3  C   -0.437981
     4  C    0.033705
     5  C    0.018222
     6  C   -0.441746
     7  C   -0.409529
     8  C    0.102702
     9  C   -0.316503
    10  C    0.101803
    11  C   -0.648063
    12  C    0.677198
    13  C   -0.632477
    14  C    0.652665
    15  H    0.237895
    16  H    0.258133
    17  H    0.250347
    18  H    0.223447
    19  H    0.190045
    20  H    0.220564
    21  H    0.247651
    22  H    0.254757
    23  H    0.235952
    24  H    0.250909
    25  H    0.250909
 Sum of Mulliken charges =   1.00000

 Dipole moment (field-independent basis, Debye):
    X=             -0.0398    Y=             -0.4545    Z=              0.0000  Tot=              0.4562
 Quadrupole moment (field-independent basis, Debye-Ang):
   XX=            -50.8631   YY=            -36.5311   ZZ=            -84.1385
   XY=             10.3137   XZ=              0.0000   YZ=             -0.0000

 Normal termination of Gaussian 16 at Tue Aug  2 11:32:34 2022.
