 Gaussian 16, Revision C.01,
 Gaussian 16:  ES64L-G16RevC.01  3-Jul-2019

 ---------------------------------------------------------------
 #n M062X/6-311++G(d,p) TD(NStates=1) EmpiricalDispersion=GD3 SP
 ---------------------------------------------------------------

 -------
 SP_-100
 -------
 Symbolic Z-matrix:
 Charge =  1 Multiplicity = 1

                         Standard orientation:
 ---------------------------------------------------------------------
 Center     Atomic      Atomic             Coordinates (Angstroms)
 Number     Number       Type             X           Y           Z
 ---------------------------------------------------------------------
      1          6           0       -2.370831   -1.546393    0.000000
      2          6           0       -2.329903   -2.940010    0.000000
      3          6           0       -1.101601   -3.584058    0.000000
      4          6           0        0.080498   -2.844532    0.000000
      5          6           0        2.393946    1.504222    0.000000
      6          6           0        2.358365    2.917320    0.000000
      7          6           0        1.150590    3.588431    0.000000
      8          6           0       -0.025264    2.841887    0.000000
      9          6           0       -1.270217    0.683363    0.000000
     10          6           0        1.254244   -0.684240    0.000000
     11          6           0       -1.195976   -0.793706    0.000000
     12          6           0        0.059632   -1.441927    0.000000
     13          6           0        0.000000    1.428241    0.000000
     14          6           0        1.225926    0.743250    0.000000
     15          1           0       -3.325974   -1.035348    0.000000
     16          1           0       -3.247850   -3.509217    0.000000
     17          1           0       -1.053468   -4.664112    0.000000
     18          1           0        1.034673   -3.355809    0.000000
     19          1           0        2.208400   -1.193018    0.000000
     20          1           0        3.353426    1.002343    0.000000
     21          1           0        3.290799    3.464902    0.000000
     22          1           0        1.114858    4.667464    0.000000
     23          1           0       -0.985567    3.343593    0.000000
     24          1           0       -1.882875    1.024060    0.856835
     25          1           0       -1.882875    1.024060   -0.856835
 ---------------------------------------------------------------------

 SCF Done:  E(RM062X) =  -539.759535391     A.U. after   15 cycles

 Excitation energies and oscillator strengths:

 Excited State   1:      Singlet-A'     2.8080 eV  441.54 nm  f=0.0281  <S**2>=0.000
      47 -> 48         0.70410
 This state for optimization and/or second-order correction.
 Total Energy, E(TD-HF/TD-DFT) =  -539.656344007
 Copying the excited state density for this state as the 1-particle RhoCI density.

 The electronic state is 1-A'.
 Alpha  occ. eigenvalues --  -10.77637 -10.73317 -10.73031 -10.72527 -10.72294
 Alpha  occ. eigenvalues --  -10.71498 -10.71275 -10.71222 -10.70946 -10.70760
 Alpha  occ. eigenvalues --  -10.70034 -10.69906 -10.69695 -10.69529  -1.16514
 Alpha  occ. eigenvalues --   -1.12509  -1.06944  -1.05843  -1.01313  -1.00277
 Alpha  occ. eigenvalues --   -0.95757  -0.91081  -0.86428  -0.85925  -0.83834
 Alpha  occ. eigenvalues --   -0.78406  -0.76096  -0.74422  -0.69551  -0.69267
 Alpha  occ. eigenvalues --   -0.68510  -0.68208  -0.68084  -0.64805  -0.64303
 Alpha  occ. eigenvalues --   -0.63127  -0.61855  -0.60007  -0.59634  -0.59083
 Alpha  occ. eigenvalues --   -0.56933  -0.55207  -0.54859  -0.52430  -0.46718
 Alpha  occ. eigenvalues --   -0.46065  -0.44403
 Alpha virt. eigenvalues --   -0.26065  -0.14675  -0.14094  -0.12767  -0.11183
 Alpha virt. eigenvalues --   -0.10095  -0.09232  -0.07982  -0.07954  -0.07478
 Alpha virt. eigenvalues --   -0.07212  -0.07149  -0.05640  -0.05585  -0.05339

 Mulliken charges:
               1
     1  C    0.086150
     2  C   -0.404930
     3  C   -0.438858
     4  C    0.036705
     5  C    0.026089
     6  C   -0.441181
     7  C   -0.408341
     8  C    0.099143
     9  C   -0.307966
    10  C    0.106210
    11  C   -0.646320
    12  C    0.663180
    13  C   -0.636820
    14  C    0.645844
    15  H    0.237377
    16  H    0.257635
    17  H    0.249944
    18  H    0.222974
    19  H    0.190035
    20  H    0.221019
    21  H    0.248145
    22  H    0.255388
    23  H    0.236074
    24  H    0.251252
    25  H    0.251252
 Sum of Mulliken charges =   1.00000

 Dipole moment (field-independent basis, Debye):
    X=              0.0245    Y=             -0.3304    Z=              0.0000  Tot=              0.3313
 Quadrupole moment (field-independent basis, Debye-Ang):
   XX=            -50.7900   YY=            -36.6248   ZZ=            -84.1387
   XY=             10.3498   XZ=             -0.0000   YZ=              0.0000

 Normal termination of Gaussian 16 at Tue Aug  2 11:02:33 2022.
