 Gaussian 16, Revision C.01,
 Gaussian 16:  ES64L-G16RevC.01  3-Jul-2019

 ---------------------------------------------------------------
 #n M062X/6-311++G(d,p) TD(NStates=1) EmpiricalDispersion=GD3 SP
 ---------------------------------------------------------------

 -------
 SP_-150
 -------
 Symbolic Z-matrix:
 Charge =  1 Multiplicity = 1

                         Standard orientation:
 ---------------------------------------------------------------------
 Center     Atomic      Atomic             Coordinates (Angstroms)
 Number     Number       Type             X           Y           Z
 ---------------------------------------------------------------------
      1          6           0        0.026016    2.848269    0.000000
      2          6           0       -1.145497    3.599471    0.000000
      3          6           0       -2.349476    2.926142    0.000000
      4          6           0       -2.383712    1.503382    0.000000
      5          6           0       -0.085679   -2.853680    0.000000
      6          6           0        1.088718   -3.587490    0.000000
      7          6           0        2.318066   -2.939056    0.000000
      8          6           0        2.365509   -1.545406    0.000000
      9          6           0        1.271257    0.686113    0.000000
     10          6           0       -1.249674   -0.693088    0.000000
     11          6           0        0.000000    1.424734    0.000000
     12          6           0       -1.221456    0.740930    0.000000
     13          6           0        1.199003   -0.795790    0.000000
     14          6           0       -0.060143   -1.446447    0.000000
     15          1           0        0.989380    3.344297    0.000000
     16          1           0       -1.108767    4.678218    0.000000
     17          1           0       -3.284924    3.468796    0.000000
     18          1           0       -3.345991    1.006582    0.000000
     19          1           0       -2.205100   -1.199374    0.000000
     20          1           0       -1.042637   -3.359415    0.000000
     21          1           0        1.045993   -4.667679    0.000000
     22          1           0        3.235436   -3.509617    0.000000
     23          1           0        3.323737   -1.040365    0.000000
     24          1           0        1.877640    1.035028    0.857385
     25          1           0        1.877640    1.035028   -0.857385
 ---------------------------------------------------------------------

 SCF Done:  E(RM062X) =  -539.758292354     A.U. after   15 cycles

 Excitation energies and oscillator strengths:

 Excited State   1:      Singlet-A'     2.7712 eV  447.41 nm  f=0.0253  <S**2>=0.000
      47 -> 48         0.70380
 This state for optimization and/or second-order correction.
 Total Energy, E(TD-HF/TD-DFT) =  -539.656453353
 Copying the excited state density for this state as the 1-particle RhoCI density.

 The electronic state is 1-A'.
 Alpha  occ. eigenvalues --  -10.77624 -10.73471 -10.72898 -10.72640 -10.72174
 Alpha  occ. eigenvalues --  -10.71631 -10.71538 -10.71081 -10.70953 -10.70509
 Alpha  occ. eigenvalues --  -10.70100 -10.69842 -10.69780 -10.69450  -1.16522
 Alpha  occ. eigenvalues --   -1.12503  -1.06942  -1.05848  -1.01307  -1.00312
 Alpha  occ. eigenvalues --   -0.95713  -0.91070  -0.86431  -0.85918  -0.83822
 Alpha  occ. eigenvalues --   -0.78390  -0.76108  -0.74409  -0.69608  -0.69279
 Alpha  occ. eigenvalues --   -0.68463  -0.68174  -0.68085  -0.64933  -0.64280
 Alpha  occ. eigenvalues --   -0.63021  -0.61803  -0.60152  -0.59503  -0.59103
 Alpha  occ. eigenvalues --   -0.56936  -0.55233  -0.54777  -0.52432  -0.46864
 Alpha  occ. eigenvalues --   -0.46084  -0.44246
 Alpha virt. eigenvalues --   -0.26073  -0.14674  -0.14090  -0.12766  -0.11185
 Alpha virt. eigenvalues --   -0.10095  -0.09238  -0.07977  -0.07947  -0.07480
 Alpha virt. eigenvalues --   -0.07213  -0.07147  -0.05641  -0.05583  -0.05342

 Mulliken charges:
               1
     1  C    0.105956
     2  C   -0.410486
     3  C   -0.442157
     4  C    0.016988
     5  C    0.037889
     6  C   -0.437227
     7  C   -0.403573
     8  C    0.080943
     9  C   -0.314729
    10  C    0.102189
    11  C   -0.629862
    12  C    0.645259
    13  C   -0.650118
    14  C    0.678128
    15  H    0.235599
    16  H    0.254216
    17  H    0.247218
    18  H    0.220090
    19  H    0.189905
    20  H    0.223945
    21  H    0.250812
    22  H    0.258711
    23  H    0.238177
    24  H    0.251063
    25  H    0.251063
 Sum of Mulliken charges =   1.00000

 Dipole moment (field-independent basis, Debye):
    X=              0.1075    Y=             -0.5763    Z=              0.0000  Tot=              0.5863
 Quadrupole moment (field-independent basis, Debye-Ang):
   XX=            -50.9355   YY=            -36.4520   ZZ=            -84.1370
   XY=            -10.2669   XZ=              0.0000   YZ=              0.0000

 Normal termination of Gaussian 16 at Tue Aug  2 10:37:38 2022.
