 Gaussian 16, Revision C.01,
 Gaussian 16:  ES64L-G16RevC.01  3-Jul-2019

 ---------------------------------------------------------------
 #n M062X/6-311++G(d,p) TD(NStates=1) EmpiricalDispersion=GD3 SP
 ---------------------------------------------------------------

 -------
 SP_-100
 -------
 Symbolic Z-matrix:
 Charge =  1 Multiplicity = 1

                         Standard orientation:
 ---------------------------------------------------------------------
 Center     Atomic      Atomic             Coordinates (Angstroms)
 Number     Number       Type             X           Y           Z
 ---------------------------------------------------------------------
      1          6           0        2.413634    1.521136    0.000000
      2          6           0        2.415234    2.911282    0.000000
      3          6           0        1.197283    3.558038    0.000000
      4          6           0       -0.021455    2.813757    0.000000
      5          6           0       -2.452599   -1.470766    0.000000
      6          6           0       -2.435732   -2.850724    0.000000
      7          6           0       -1.223138   -3.534345    0.000000
      8          6           0       -0.023921   -2.824348    0.000000
      9          6           0        1.269619   -0.700626    0.000000
     10          6           0       -1.261291    0.672501    0.000000
     11          6           0        1.197283    0.769327    0.000000
     12          6           0       -0.036625    1.425142    0.000000
     13          6           0       -0.021455   -1.440885    0.000000
     14          6           0       -1.250993   -0.732084    0.000000
     15          1           0        3.350238    0.976254    0.000000
     16          1           0        3.342543    3.463382    0.000000
     17          1           0        1.144902    4.638177    0.000000
     18          1           0       -0.958352    3.356951    0.000000
     19          1           0       -2.202903    1.203785    0.000000
     20          1           0       -3.393546   -0.936063    0.000000
     21          1           0       -3.366269   -3.400618    0.000000
     22          1           0       -1.208433   -4.614658    0.000000
     23          1           0        0.917064   -3.360660    0.000000
     24          1           0        1.889845   -1.015495    0.858760
     25          1           0        1.889845   -1.015495   -0.858760
 ---------------------------------------------------------------------

 SCF Done:  E(RM062X) =  -539.757449740     A.U. after   15 cycles

 Excitation energies and oscillator strengths:

 Excited State   1:      Singlet-A'     2.7459 eV  451.53 nm  f=0.0235  <S**2>=0.000
      47 -> 48         0.70368
 This state for optimization and/or second-order correction.
 Total Energy, E(TD-HF/TD-DFT) =  -539.656541114
 Copying the excited state density for this state as the 1-particle RhoCI density.

 The electronic state is 1-A'.
 Alpha  occ. eigenvalues --  -10.77623 -10.73575 -10.72856 -10.72702 -10.72120
 Alpha  occ. eigenvalues --  -10.71697 -10.71667 -10.71012 -10.70970 -10.70382
 Alpha  occ. eigenvalues --  -10.70134 -10.69828 -10.69810 -10.69418  -1.16505
 Alpha  occ. eigenvalues --   -1.12482  -1.06941  -1.05816  -1.01302  -1.00311
 Alpha  occ. eigenvalues --   -0.95684  -0.91053  -0.86431  -0.85906  -0.83806
 Alpha  occ. eigenvalues --   -0.78375  -0.76096  -0.74397  -0.69656  -0.69284
 Alpha  occ. eigenvalues --   -0.68422  -0.68142  -0.68091  -0.65007  -0.64260
 Alpha  occ. eigenvalues --   -0.62927  -0.61755  -0.60244  -0.59437  -0.59121
 Alpha  occ. eigenvalues --   -0.56928  -0.55247  -0.54713  -0.52436  -0.46953
 Alpha  occ. eigenvalues --   -0.46096  -0.44149
 Alpha virt. eigenvalues --   -0.26087  -0.14670  -0.14088  -0.12766  -0.11185
 Alpha virt. eigenvalues --   -0.10092  -0.09242  -0.07973  -0.07947  -0.07480
 Alpha virt. eigenvalues --   -0.07209  -0.07143  -0.05643  -0.05580  -0.05343

 Mulliken charges:
               1
     1  C    0.108895
     2  C   -0.411376
     3  C   -0.442864
     4  C    0.006411
     5  C    0.031167
     6  C   -0.436066
     7  C   -0.402990
     8  C    0.079217
     9  C   -0.329238
    10  C    0.094064
    11  C   -0.621570
    12  C    0.658960
    13  C   -0.651418
    14  C    0.696780
    15  H    0.235608
    16  H    0.253539
    17  H    0.246698
    18  H    0.219712
    19  H    0.189918
    20  H    0.224392
    21  H    0.251174
    22  H    0.259175
    23  H    0.238804
    24  H    0.250505
    25  H    0.250505
 Sum of Mulliken charges =   1.00000

 Dipole moment (field-independent basis, Debye):
    X=             -0.4971    Y=             -0.5222    Z=              0.0000  Tot=              0.7210
 Quadrupole moment (field-independent basis, Debye-Ang):
   XX=            -49.9433   YY=            -37.4090   ZZ=            -84.1366
   XY=             10.9238   XZ=              0.0000   YZ=             -0.0000

 Normal termination of Gaussian 16 at Tue Aug  2 11:10:13 2022.
