 Gaussian 16, Revision C.01,
 Gaussian 16:  ES64L-G16RevC.01  3-Jul-2019

 ---------------------------------------------------------------
 #n M062X/6-311++G(d,p) TD(NStates=1) EmpiricalDispersion=GD3 SP
 ---------------------------------------------------------------

 -----
 SP_75
 -----
 Symbolic Z-matrix:
 Charge =  1 Multiplicity = 1

                         Standard orientation:
 ---------------------------------------------------------------------
 Center     Atomic      Atomic             Coordinates (Angstroms)
 Number     Number       Type             X           Y           Z
 ---------------------------------------------------------------------
      1          6           0        0.019466    2.851357    0.000000
      2          6           0       -1.151155    3.597085    0.000000
      3          6           0       -2.358925    2.922199    0.000000
      4          6           0       -2.389710    1.503982    0.000000
      5          6           0       -0.083898   -2.849913    0.000000
      6          6           0        1.092169   -3.590359    0.000000
      7          6           0        2.324366   -2.944232    0.000000
      8          6           0        2.369684   -1.554901    0.000000
      9          6           0        1.288312    0.693869    0.000000
     10          6           0       -1.252804   -0.688976    0.000000
     11          6           0        0.000000    1.427196    0.000000
     12          6           0       -1.221590    0.741246    0.000000
     13          6           0        1.197942   -0.795326    0.000000
     14          6           0       -0.059657   -1.441951    0.000000
     15          1           0        0.980508    3.351233    0.000000
     16          1           0       -1.116847    4.675919    0.000000
     17          1           0       -3.293177    3.465671    0.000000
     18          1           0       -3.349587    1.003237    0.000000
     19          1           0       -2.207240   -1.196218    0.000000
     20          1           0       -1.040156   -3.356648    0.000000
     21          1           0        1.045024   -4.669812    0.000000
     22          1           0        3.240813   -3.515832    0.000000
     23          1           0        3.326850   -1.048233    0.000000
     24          1           0        1.884308    1.031513    0.862060
     25          1           0        1.884308    1.031513   -0.862060
 ---------------------------------------------------------------------

 SCF Done:  E(RM062X) =  -539.759276429     A.U. after   15 cycles

 Excitation energies and oscillator strengths:

 Excited State   1:      Singlet-A'     2.7918 eV  444.10 nm  f=0.0256  <S**2>=0.000
      47 -> 48         0.70396
 This state for optimization and/or second-order correction.
 Total Energy, E(TD-HF/TD-DFT) =  -539.656678299
 Copying the excited state density for this state as the 1-particle RhoCI density.

 The electronic state is 1-A'.
 Alpha  occ. eigenvalues --  -10.77673 -10.73516 -10.73080 -10.72624 -10.72274
 Alpha  occ. eigenvalues --  -10.71576 -10.71387 -10.71165 -10.71012 -10.70615
 Alpha  occ. eigenvalues --  -10.70073 -10.69875 -10.69767 -10.69522  -1.16401
 Alpha  occ. eigenvalues --   -1.12429  -1.06945  -1.05656  -1.01308  -1.00156
 Alpha  occ. eigenvalues --   -0.95754  -0.91029  -0.86415  -0.85879  -0.83792
 Alpha  occ. eigenvalues --   -0.78380  -0.75994  -0.74403  -0.69624  -0.69246
 Alpha  occ. eigenvalues --   -0.68451  -0.68147  -0.68119  -0.64826  -0.64244
 Alpha  occ. eigenvalues --   -0.62923  -0.61813  -0.60170  -0.59556  -0.59116
 Alpha  occ. eigenvalues --   -0.56876  -0.55240  -0.54746  -0.52445  -0.46715
 Alpha  occ. eigenvalues --   -0.46079  -0.44393
 Alpha virt. eigenvalues --   -0.26113  -0.14663  -0.14097  -0.12776  -0.11177
 Alpha virt. eigenvalues --   -0.10080  -0.09235  -0.07978  -0.07975  -0.07475
 Alpha virt. eigenvalues --   -0.07197  -0.07139  -0.05647  -0.05577  -0.05331

 Mulliken charges:
               1
     1  C    0.098517
     2  C   -0.407983
     3  C   -0.442207
     4  C   -0.004755
     5  C    0.008019
     6  C   -0.437251
     7  C   -0.403572
     8  C    0.081947
     9  C   -0.358024
    10  C    0.078097
    11  C   -0.615560
    12  C    0.701414
    13  C   -0.637390
    14  C    0.720622
    15  H    0.236790
    16  H    0.254430
    17  H    0.247424
    18  H    0.220765
    19  H    0.190539
    20  H    0.223442
    21  H    0.250104
    22  H    0.257836
    23  H    0.238725
    24  H    0.249036
    25  H    0.249036
 Sum of Mulliken charges =   1.00000

 Dipole moment (field-independent basis, Debye):
    X=              0.0274    Y=             -0.4617    Z=              0.0000  Tot=              0.4625
 Quadrupole moment (field-independent basis, Debye-Ang):
   XX=            -50.8639   YY=            -36.4645   ZZ=            -84.1422
   XY=            -10.3618   XZ=              0.0000   YZ=             -0.0000

 Normal termination of Gaussian 16 at Tue Aug  2 12:55:36 2022.
