 Gaussian 16, Revision C.01,
 Gaussian 16:  ES64L-G16RevC.01  3-Jul-2019

 ---------------------------------------------------------------
 #n M062X/6-311++G(d,p) TD(NStates=1) EmpiricalDispersion=GD3 SP
 ---------------------------------------------------------------

 -------
 SP_-125
 -------
 Symbolic Z-matrix:
 Charge =  1 Multiplicity = 1

                         Standard orientation:
 ---------------------------------------------------------------------
 Center     Atomic      Atomic             Coordinates (Angstroms)
 Number     Number       Type             X           Y           Z
 ---------------------------------------------------------------------
      1          6           0        0.025730    2.852168    0.000000
      2          6           0       -1.143264    3.605351    0.000000
      3          6           0       -2.345564    2.930619    0.000000
      4          6           0       -2.378691    1.502993    0.000000
      5          6           0       -0.088394   -2.858331    0.000000
      6          6           0        1.081914   -3.589701    0.000000
      7          6           0        2.312170   -2.939095    0.000000
      8          6           0        2.363004   -1.545914    0.000000
      9          6           0        1.273802    0.688376    0.000000
     10          6           0       -1.247505   -0.697539    0.000000
     11          6           0        0.000000    1.423069    0.000000
     12          6           0       -1.218992    0.739686    0.000000
     13          6           0        1.200557   -0.796901    0.000000
     14          6           0       -0.060392   -1.448451    0.000000
     15          1           0        0.990532    3.345461    0.000000
     16          1           0       -1.106242    4.683950    0.000000
     17          1           0       -3.282558    3.470636    0.000000
     18          1           0       -3.342256    1.008585    0.000000
     19          1           0       -2.203527   -1.202540    0.000000
     20          1           0       -1.046816   -3.361090    0.000000
     21          1           0        1.041696   -4.669891    0.000000
     22          1           0        3.229113   -3.510530    0.000000
     23          1           0        3.322824   -1.044038    0.000000
     24          1           0        1.875491    1.040735    0.858210
     25          1           0        1.875491    1.040735   -0.858210
 ---------------------------------------------------------------------

 SCF Done:  E(RM062X) =  -539.757397708     A.U. after   15 cycles

 Excitation energies and oscillator strengths:

 Excited State   1:      Singlet-A'     2.7461 eV  451.49 nm  f=0.0236  <S**2>=0.000
      47 -> 48         0.70368
 This state for optimization and/or second-order correction.
 Total Energy, E(TD-HF/TD-DFT) =  -539.656479809
 Copying the excited state density for this state as the 1-particle RhoCI density.

 The electronic state is 1-A'.
 Alpha  occ. eigenvalues --  -10.77618 -10.73561 -10.72843 -10.72698 -10.72116
 Alpha  occ. eigenvalues --  -10.71696 -10.71669 -10.71011 -10.70964 -10.70384
 Alpha  occ. eigenvalues --  -10.70134 -10.69825 -10.69810 -10.69415  -1.16518
 Alpha  occ. eigenvalues --   -1.12491  -1.06941  -1.05837  -1.01302  -1.00326
 Alpha  occ. eigenvalues --   -0.95682  -0.91059  -0.86433  -0.85910  -0.83810
 Alpha  occ. eigenvalues --   -0.78377  -0.76108  -0.74399  -0.69652  -0.69287
 Alpha  occ. eigenvalues --   -0.68426  -0.68147  -0.68088  -0.65011  -0.64265
 Alpha  occ. eigenvalues --   -0.62942  -0.61758  -0.60236  -0.59436  -0.59118
 Alpha  occ. eigenvalues --   -0.56934  -0.55246  -0.54719  -0.52435  -0.46960
 Alpha  occ. eigenvalues --   -0.46095  -0.44144
 Alpha virt. eigenvalues --   -0.26082  -0.14671  -0.14088  -0.12765  -0.11186
 Alpha virt. eigenvalues --   -0.10094  -0.09242  -0.07973  -0.07944  -0.07480
 Alpha virt. eigenvalues --   -0.07211  -0.07144  -0.05643  -0.05580  -0.05344

 Mulliken charges:
               1
     1  C    0.109155
     2  C   -0.411485
     3  C   -0.442740
     4  C    0.009458
     5  C    0.034615
     6  C   -0.436120
     7  C   -0.403103
     8  C    0.078727
     9  C   -0.323808
    10  C    0.096949
    11  C   -0.623797
    12  C    0.652387
    13  C   -0.651733
    14  C    0.691147
    15  H    0.235491
    16  H    0.253587
    17  H    0.246727
    18  H    0.219675
    19  H    0.189856
    20  H    0.224408
    21  H    0.251212
    22  H    0.259211
    23  H    0.238697
    24  H    0.250742
    25  H    0.250742
 Sum of Mulliken charges =   1.00000

 Dipole moment (field-independent basis, Debye):
    X=              0.1723    Y=             -0.6997    Z=              0.0000  Tot=              0.7206
 Quadrupole moment (field-independent basis, Debye-Ang):
   XX=            -51.0077   YY=            -36.3530   ZZ=            -84.1361
   XY=            -10.2339   XZ=              0.0000   YZ=              0.0000

 Normal termination of Gaussian 16 at Tue Aug  2 10:54:30 2022.
