 Gaussian 16, Revision C.01,
 Gaussian 16:  ES64L-G16RevC.01  3-Jul-2019

 ---------------------------------------------------------------
 #n M062X/6-311++G(d,p) TD(NStates=1) EmpiricalDispersion=GD3 SP
 ---------------------------------------------------------------

 -------
 SP_-150
 -------
 Symbolic Z-matrix:
 Charge =  1 Multiplicity = 1

                         Standard orientation:
 ---------------------------------------------------------------------
 Center     Atomic      Atomic             Coordinates (Angstroms)
 Number     Number       Type             X           Y           Z
 ---------------------------------------------------------------------
      1          6           0        2.468265    1.466088    0.000000
      2          6           0        2.523685    2.852697    0.000000
      3          6           0        1.323174    3.516606    0.000000
      4          6           0        0.062854    2.785656    0.000000
      5          6           0       -2.520070   -1.409468    0.000000
      6          6           0       -2.533994   -2.760799    0.000000
      7          6           0       -1.326378   -3.469970    0.000000
      8          6           0       -0.098904   -2.806323    0.000000
      9          6           0        1.256228   -0.729046    0.000000
     10          6           0       -1.259637    0.678523    0.000000
     11          6           0        1.207103    0.733609    0.000000
     12          6           0       -0.000000    1.411098    0.000000
     13          6           0       -0.058270   -1.450735    0.000000
     14          6           0       -1.281868   -0.706255    0.000000
     15          1           0        3.380880    0.880973    0.000000
     16          1           0        3.465616    3.377980    0.000000
     17          1           0        1.280950    4.598070    0.000000
     18          1           0       -0.851188    3.367585    0.000000
     19          1           0       -2.183255    1.240429    0.000000
     20          1           0       -3.437568   -0.835948    0.000000
     21          1           0       -3.470035   -3.301713    0.000000
     22          1           0       -1.342717   -4.550966    0.000000
     23          1           0        0.817808   -3.383029    0.000000
     24          1           0        1.883196   -1.031731    0.859310
     25          1           0        1.883196   -1.031731   -0.859310
 ---------------------------------------------------------------------

 SCF Done:  E(RM062X) =  -539.747006695     A.U. after   16 cycles

 Excitation energies and oscillator strengths:

 Excited State   1:      Singlet-A'     2.5533 eV  485.58 nm  f=0.0166  <S**2>=0.000
      47 -> 48         0.70340
 This state for optimization and/or second-order correction.
 Total Energy, E(TD-HF/TD-DFT) =  -539.653173847
 Copying the excited state density for this state as the 1-particle RhoCI density.

 The electronic state is 1-A'.
 Alpha  occ. eigenvalues --  -10.77488 -10.73990 -10.72982 -10.72488 -10.72426
 Alpha  occ. eigenvalues --  -10.72053 -10.71716 -10.70985 -10.70568 -10.70328
 Alpha  occ. eigenvalues --  -10.70066 -10.69699 -10.69605 -10.69178  -1.16657
 Alpha  occ. eigenvalues --   -1.12488  -1.06933  -1.06004  -1.01260  -1.00633
 Alpha  occ. eigenvalues --   -0.95382  -0.91000  -0.86465  -0.85885  -0.83742
 Alpha  occ. eigenvalues --   -0.78269  -0.76255  -0.74330  -0.69958  -0.69381
 Alpha  occ. eigenvalues --   -0.68158  -0.68077  -0.67974  -0.65612  -0.64224
 Alpha  occ. eigenvalues --   -0.62578  -0.61337  -0.60701  -0.59207  -0.59032
 Alpha  occ. eigenvalues --   -0.56981  -0.55263  -0.54324  -0.52440  -0.47814
 Alpha  occ. eigenvalues --   -0.46148  -0.43299
 Alpha virt. eigenvalues --   -0.26118  -0.14666  -0.14055  -0.12745  -0.11204
 Alpha virt. eigenvalues --   -0.10104  -0.09286  -0.07939  -0.07882  -0.07493
 Alpha virt. eigenvalues --   -0.07223  -0.07125  -0.05649  -0.05568  -0.05374

 Mulliken charges:
               1
     1  C    0.128288
     2  C   -0.417170
     3  C   -0.444923
     4  C   -0.012065
     5  C    0.037330
     6  C   -0.428770
     7  C   -0.399139
     8  C    0.064876
     9  C   -0.346245
    10  C    0.076929
    11  C   -0.584425
    12  C    0.646946
    13  C   -0.661867
    14  C    0.720060
    15  H    0.234199
    16  H    0.250180
    17  H    0.244037
    18  H    0.217330
    19  H    0.188555
    20  H    0.227213
    21  H    0.253807
    22  H    0.262429
    23  H    0.241024
    24  H    0.250701
    25  H    0.250701
 Sum of Mulliken charges =   1.00000

 Dipole moment (field-independent basis, Debye):
    X=             -0.9170    Y=             -1.2283    Z=              0.0000  Tot=              1.5328
 Quadrupole moment (field-independent basis, Debye-Ang):
   XX=            -48.8875   YY=            -38.3076   ZZ=            -84.1201
   XY=             11.5698   XZ=              0.0000   YZ=             -0.0000

 Normal termination of Gaussian 16 at Tue Aug  2 10:45:37 2022.
