 Gaussian 16, Revision C.01,
 Gaussian 16:  ES64L-G16RevC.01  3-Jul-2019

 ---------------------------------------------------------------
 #n M062X/6-311++G(d,p) TD(NStates=1) EmpiricalDispersion=GD3 SP
 ---------------------------------------------------------------

 -------
 SP_-125
 -------
 Symbolic Z-matrix:
 Charge =  1 Multiplicity = 1

                         Standard orientation:
 ---------------------------------------------------------------------
 Center     Atomic      Atomic             Coordinates (Angstroms)
 Number     Number       Type             X           Y           Z
 ---------------------------------------------------------------------
      1          6           0        2.462855    1.463978    0.000000
      2          6           0        2.512174    2.851459    0.000000
      3          6           0        1.311405    3.519993    0.000000
      4          6           0        0.058811    2.794936    0.000000
      5          6           0       -2.509910   -1.408802    0.000000
      6          6           0       -2.525553   -2.769663    0.000000
      7          6           0       -1.322199   -3.480698    0.000000
      8          6           0       -0.098312   -2.812033    0.000000
      9          6           0        1.255182   -0.730724    0.000000
     10          6           0       -1.254301    0.687222    0.000000
     11          6           0        1.210296    0.735204    0.000000
     12          6           0        0.000000    1.415850    0.000000
     13          6           0       -0.058305   -1.447132    0.000000
     14          6           0       -1.277609   -0.704072    0.000000
     15          1           0        3.378740    0.884368    0.000000
     16          1           0        3.453809    3.377757    0.000000
     17          1           0        1.274971    4.601303    0.000000
     18          1           0       -0.858144    3.371847    0.000000
     19          1           0       -2.179263    1.246904    0.000000
     20          1           0       -3.430523   -0.840177    0.000000
     21          1           0       -3.464350   -3.305483    0.000000
     22          1           0       -1.337498   -4.561468    0.000000
     23          1           0        0.821787   -3.383306    0.000000
     24          1           0        1.876632   -1.042423    0.859310
     25          1           0        1.876632   -1.042423   -0.859310
 ---------------------------------------------------------------------

 SCF Done:  E(RM062X) =  -539.751390178     A.U. after   16 cycles

 Excitation energies and oscillator strengths:

 Excited State   1:      Singlet-A'     2.6222 eV  472.83 nm  f=0.0184  <S**2>=0.000
      47 -> 48         0.70344
 This state for optimization and/or second-order correction.
 Total Energy, E(TD-HF/TD-DFT) =  -539.655027189
 Copying the excited state density for this state as the 1-particle RhoCI density.

 The electronic state is 1-A'.
 Alpha  occ. eigenvalues --  -10.77545 -10.73860 -10.72897 -10.72573 -10.72210
 Alpha  occ. eigenvalues --  -10.71940 -10.71856 -10.70982 -10.70718 -10.70264
 Alpha  occ. eigenvalues --  -10.69989 -10.69910 -10.69681 -10.69259  -1.16589
 Alpha  occ. eigenvalues --   -1.12482  -1.06935  -1.05917  -1.01277  -1.00503
 Alpha  occ. eigenvalues --   -0.95497  -0.91022  -0.86451  -0.85892  -0.83766
 Alpha  occ. eigenvalues --   -0.78312  -0.76188  -0.74353  -0.69847  -0.69345
 Alpha  occ. eigenvalues --   -0.68255  -0.68084  -0.68032  -0.65401  -0.64232
 Alpha  occ. eigenvalues --   -0.62685  -0.61498  -0.60549  -0.59181  -0.59166
 Alpha  occ. eigenvalues --   -0.56960  -0.55268  -0.54467  -0.52439  -0.47498
 Alpha  occ. eigenvalues --   -0.46132  -0.43605
 Alpha virt. eigenvalues --   -0.26107  -0.14667  -0.14069  -0.12755  -0.11196
 Alpha virt. eigenvalues --   -0.10098  -0.09269  -0.07953  -0.07909  -0.07488
 Alpha virt. eigenvalues --   -0.07217  -0.07133  -0.05647  -0.05572  -0.05361

 Mulliken charges:
               1
     1  C    0.121671
     2  C   -0.415099
     3  C   -0.444452
     4  C   -0.006964
     5  C    0.034692
     6  C   -0.431372
     7  C   -0.400364
     8  C    0.069380
     9  C   -0.341270
    10  C    0.082928
    11  C   -0.597906
    12  C    0.652303
    13  C   -0.658059
    14  C    0.714536
    15  H    0.234660
    16  H    0.251272
    17  H    0.244904
    18  H    0.218086
    19  H    0.189141
    20  H    0.226275
    21  H    0.252926
    22  H    0.261347
    23  H    0.240314
    24  H    0.250524
    25  H    0.250524
 Sum of Mulliken charges =   1.00000

 Dipole moment (field-independent basis, Debye):
    X=             -0.7844    Y=             -0.9897    Z=             -0.0000  Tot=              1.2628
 Quadrupole moment (field-independent basis, Debye-Ang):
   XX=            -49.0523   YY=            -38.2045   ZZ=            -84.1272
   XY=             11.4524   XZ=              0.0000   YZ=              0.0000

 Normal termination of Gaussian 16 at Tue Aug  2 10:59:11 2022.
