 Gaussian 16, Revision C.01,
 Gaussian 16:  ES64L-G16RevC.01  3-Jul-2019

 ---------------------------------------------------------------
 #n M062X/6-311++G(d,p) TD(NStates=1) EmpiricalDispersion=GD3 SP
 ---------------------------------------------------------------

 ------
 SP_125
 ------
 Symbolic Z-matrix:
 Charge =  1 Multiplicity = 1

                         Standard orientation:
 ---------------------------------------------------------------------
 Center     Atomic      Atomic             Coordinates (Angstroms)
 Number     Number       Type             X           Y           Z
 ---------------------------------------------------------------------
      1          6           0        2.495323   -1.369438    0.000000
      2          6           0        3.705206   -0.688822    0.000000
      3          6           0        3.689629    0.697527    0.000000
      4          6           0        2.465504    1.395161    0.000000
      5          6           0       -2.461292    1.421018    0.000000
      6          6           0       -3.681297    0.735604    0.000000
      7          6           0       -3.702951   -0.653259    0.000000
      8          6           0       -2.500392   -1.348133    0.000000
      9          6           0       -0.004371   -1.465467    0.000000
     10          6           0        0.000000    1.429749    0.000000
     11          6           0        1.258540   -0.680742    0.000000
     12          6           0        1.236932    0.724334    0.000000
     13          6           0       -1.266388   -0.673648    0.000000
     14          6           0       -1.235784    0.735627    0.000000
     15          1           0        2.484505   -2.452517    0.000000
     16          1           0        4.638714   -1.231139    0.000000
     17          1           0        4.614754    1.255951    0.000000
     18          1           0        2.475555    2.477573    0.000000
     19          1           0        0.005149    2.510539    0.000000
     20          1           0       -2.457830    2.503334    0.000000
     21          1           0       -4.605335    1.295600    0.000000
     22          1           0       -4.641018   -1.188132    0.000000
     23          1           0       -2.503692   -2.431170    0.000000
     24          1           0       -0.001375   -2.148554    0.862610
     25          1           0       -0.001375   -2.148554   -0.862610
 ---------------------------------------------------------------------

 SCF Done:  E(RM062X) =  -539.760141843     A.U. after   15 cycles

 Excitation energies and oscillator strengths:

 Excited State   1:      Singlet-A'     2.8200 eV  439.66 nm  f=0.0278  <S**2>=0.000
      47 -> 48         0.70422
 This state for optimization and/or second-order correction.
 Total Energy, E(TD-HF/TD-DFT) =  -539.656508981
 Copying the excited state density for this state as the 1-particle RhoCI density.

 The electronic state is 1-A'.
 Alpha  occ. eigenvalues --  -10.77688 -10.73385 -10.73240 -10.72518 -10.72400
 Alpha  occ. eigenvalues --  -10.71444 -10.71307 -10.71122 -10.71019 -10.70865
 Alpha  occ. eigenvalues --  -10.70007 -10.69941 -10.69689 -10.69607  -1.16375
 Alpha  occ. eigenvalues --   -1.12419  -1.06946  -1.05617  -1.01312  -1.00107
 Alpha  occ. eigenvalues --   -0.95788  -0.91028  -0.86409  -0.85876  -0.83794
 Alpha  occ. eigenvalues --   -0.78387  -0.75965  -0.74410  -0.69597  -0.69231
 Alpha  occ. eigenvalues --   -0.68476  -0.68161  -0.68126  -0.64734  -0.64251
 Alpha  occ. eigenvalues --   -0.62954  -0.61854  -0.60096  -0.59635  -0.59109
 Alpha  occ. eigenvalues --   -0.56861  -0.55233  -0.54779  -0.52447  -0.46599
 Alpha  occ. eigenvalues --   -0.46058  -0.44524
 Alpha virt. eigenvalues --   -0.26115  -0.14662  -0.14100  -0.12778  -0.11175
 Alpha virt. eigenvalues --   -0.10078  -0.09231  -0.07984  -0.07982  -0.07474
 Alpha virt. eigenvalues --   -0.07194  -0.07140  -0.05647  -0.05577  -0.05327

 Mulliken charges:
               1
     1  C    0.092365
     2  C   -0.405883
     3  C   -0.440873
     4  C   -0.002987
     5  C    0.001218
     6  C   -0.439182
     7  C   -0.404479
     8  C    0.086895
     9  C   -0.362099
    10  C    0.076078
    11  C   -0.620490
    12  C    0.711674
    13  C   -0.628057
    14  C    0.717997
    15  H    0.237493
    16  H    0.255528
    17  H    0.248285
    18  H    0.221662
    19  H    0.190724
    20  H    0.222549
    21  H    0.249175
    22  H    0.256668
    23  H    0.238140
    24  H    0.248800
    25  H    0.248800
 Sum of Mulliken charges =   1.00000

 Dipole moment (field-independent basis, Debye):
    X=             -0.1393    Y=              0.1975    Z=             -0.0000  Tot=              0.2417
 Quadrupole moment (field-independent basis, Debye-Ang):
   XX=            -31.0535   YY=            -56.2795   ZZ=            -84.1441
   XY=             -0.1768   XZ=             -0.0000   YZ=             -0.0000

 Normal termination of Gaussian 16 at Tue Aug  2 13:24:29 2022.
