 Gaussian 16, Revision C.01,
 Gaussian 16:  ES64L-G16RevC.01  3-Jul-2019

 ---------------------------------------------------------------
 #n M062X/6-311++G(d,p) TD(NStates=1) EmpiricalDispersion=GD3 SP
 ---------------------------------------------------------------

 ------
 SP_100
 ------
 Symbolic Z-matrix:
 Charge =  1 Multiplicity = 1

                         Standard orientation:
 ---------------------------------------------------------------------
 Center     Atomic      Atomic             Coordinates (Angstroms)
 Number     Number       Type             X           Y           Z
 ---------------------------------------------------------------------
      1          6           0        1.359233    2.496461    0.000000
      2          6           0        0.671291    3.703414    0.000000
      3          6           0       -0.715828    3.685067    0.000000
      4          6           0       -1.407936    2.463362    0.000000
      5          6           0       -1.407936   -2.463350    0.000000
      6          6           0       -0.715828   -3.685055    0.000000
      7          6           0        0.671291   -3.703402    0.000000
      8          6           0        1.359233   -2.496449    0.000000
      9          6           0        1.462171   -0.000094    0.000000
     10          6           0       -1.429587    0.000006    0.000000
     11          6           0        0.677167    1.262361    0.000000
     12          6           0       -0.730202    1.236677    0.000000
     13          6           0        0.677167   -1.262349    0.000000
     14          6           0       -0.730202   -1.236665    0.000000
     15          1           0        2.442349    2.492477    0.000000
     16          1           0        1.210191    4.639059    0.000000
     17          1           0       -1.274847    4.609868    0.000000
     18          1           0       -2.490357    2.466956    0.000000
     19          1           0       -2.510464    0.000006    0.000000
     20          1           0       -2.490357   -2.466944    0.000000
     21          1           0       -1.274847   -4.609856    0.000000
     22          1           0        1.210191   -4.639047    0.000000
     23          1           0        2.442349   -2.492465    0.000000
     24          1           0        2.147789    0.000006    0.861785
     25          1           0        2.147789    0.000006   -0.861785
 ---------------------------------------------------------------------

 SCF Done:  E(RM062X) =  -539.760270618     A.U. after   15 cycles

 Excitation energies and oscillator strengths:

 Excited State   1:      Singlet-A'     2.8236 eV  439.10 nm  f=0.0283  <S**2>=0.000
      47 -> 48         0.70426
 This state for optimization and/or second-order correction.
 Total Energy, E(TD-HF/TD-DFT) =  -539.656506141
 Copying the excited state density for this state as the 1-particle RhoCI density.

 The electronic state is 1-A'.
 Alpha  occ. eigenvalues --  -10.77683 -10.73294 -10.73293 -10.72454 -10.72452
 Alpha  occ. eigenvalues --  -10.71374 -10.71374 -10.71008 -10.70996 -10.70996
 Alpha  occ. eigenvalues --  -10.69974 -10.69974 -10.69643 -10.69643  -1.16392
 Alpha  occ. eigenvalues --   -1.12432  -1.06946  -1.05647  -1.01313  -1.00125
 Alpha  occ. eigenvalues --   -0.95789  -0.91036  -0.86411  -0.85883  -0.83800
 Alpha  occ. eigenvalues --   -0.78391  -0.75980  -0.74413  -0.69584  -0.69233
 Alpha  occ. eigenvalues --   -0.68487  -0.68172  -0.68119  -0.64727  -0.64262
 Alpha  occ. eigenvalues --   -0.62989  -0.61862  -0.60062  -0.59656  -0.59104
 Alpha  occ. eigenvalues --   -0.56870  -0.55227  -0.54800  -0.52444  -0.46596
 Alpha  occ. eigenvalues --   -0.46055  -0.44530
 Alpha virt. eigenvalues --   -0.26108  -0.14664  -0.14100  -0.12777  -0.11176
 Alpha virt. eigenvalues --   -0.10080  -0.09230  -0.07983  -0.07980  -0.07474
 Alpha virt. eigenvalues --   -0.07196  -0.07141  -0.05646  -0.05578  -0.05328

 Mulliken charges:
               1
     1  C    0.090997
     2  C   -0.405735
     3  C   -0.440063
     4  C    0.003116
     5  C    0.003074
     6  C   -0.440066
     7  C   -0.405795
     8  C    0.090907
     9  C   -0.354526
    10  C    0.081029
    11  C   -0.628271
    12  C    0.707688
    13  C   -0.628365
    14  C    0.707747
    15  H    0.237680
    16  H    0.256151
    17  H    0.248773
    18  H    0.222073
    19  H    0.190646
    20  H    0.222073
    21  H    0.248771
    22  H    0.256152
    23  H    0.237682
    24  H    0.249131
    25  H    0.249131
 Sum of Mulliken charges =   1.00000

 Dipole moment (field-independent basis, Debye):
    X=             -0.1946    Y=              0.0000    Z=             -0.0000  Tot=              0.1946
 Quadrupole moment (field-independent basis, Debye-Ang):
   XX=            -56.2755   YY=            -31.0709   ZZ=            -84.1436
   XY=              0.0001   XZ=              0.0000   YZ=             -0.0000

 Normal termination of Gaussian 16 at Tue Aug  2 13:07:55 2022.
