 Gaussian 16, Revision C.01,
 Gaussian 16:  ES64L-G16RevC.01  3-Jul-2019

 ---------------------------------------------------------------
 #n M062X/6-311++G(d,p) TD(NStates=1) EmpiricalDispersion=GD3 SP
 ---------------------------------------------------------------

 ------
 SP_-25
 ------
 Symbolic Z-matrix:
 Charge =  1 Multiplicity = 1

                         Standard orientation:
 ---------------------------------------------------------------------
 Center     Atomic      Atomic             Coordinates (Angstroms)
 Number     Number       Type             X           Y           Z
 ---------------------------------------------------------------------
      1          6           0        0.022206    2.848563    0.000000
      2          6           0       -1.149778    3.595687    0.000000
      3          6           0       -2.356705    2.921985    0.000000
      4          6           0       -2.389319    1.503897    0.000000
      5          6           0       -0.083530   -2.849558    0.000000
      6          6           0        1.093506   -3.588325    0.000000
      7          6           0        2.324203   -2.942145    0.000000
      8          6           0        2.369015   -1.550901    0.000000
      9          6           0        1.280474    0.689859    0.000000
     10          6           0       -1.252424   -0.688841    0.000000
     11          6           0        0.000000    1.426878    0.000000
     12          6           0       -1.222522    0.741617    0.000000
     13          6           0        1.197744   -0.795069    0.000000
     14          6           0       -0.059755   -1.442948    0.000000
     15          1           0        0.983600    3.347993    0.000000
     16          1           0       -1.114617    4.674547    0.000000
     17          1           0       -3.290818    3.466187    0.000000
     18          1           0       -3.349641    1.003775    0.000000
     19          1           0       -2.207017   -1.196214    0.000000
     20          1           0       -1.039481   -3.357082    0.000000
     21          1           0        1.047126   -4.668074    0.000000
     22          1           0        3.241189   -3.512980    0.000000
     23          1           0        3.325967   -1.043619    0.000000
     24          1           0        1.882505    1.030637    0.859860
     25          1           0        1.882505    1.030637   -0.859860
 ---------------------------------------------------------------------

 SCF Done:  E(RM062X) =  -539.759249504     A.U. after   15 cycles

 Excitation energies and oscillator strengths:

 Excited State   1:      Singlet-A'     2.7921 eV  444.05 nm  f=0.0261  <S**2>=0.000
      47 -> 48         0.70396
 This state for optimization and/or second-order correction.
 Total Energy, E(TD-HF/TD-DFT) =  -539.656641384
 Copying the excited state density for this state as the 1-particle RhoCI density.

 The electronic state is 1-A'.
 Alpha  occ. eigenvalues --  -10.77655 -10.73462 -10.73028 -10.72607 -10.72256
 Alpha  occ. eigenvalues --  -10.71571 -10.71396 -10.71159 -10.70983 -10.70624
 Alpha  occ. eigenvalues --  -10.70071 -10.69875 -10.69754 -10.69508  -1.16452
 Alpha  occ. eigenvalues --   -1.12463  -1.06944  -1.05740  -1.01309  -1.00216
 Alpha  occ. eigenvalues --   -0.95747  -0.91050  -0.86421  -0.85898  -0.83808
 Alpha  occ. eigenvalues --   -0.78388  -0.76041  -0.74409  -0.69603  -0.69257
 Alpha  occ. eigenvalues --   -0.68469  -0.68168  -0.68102  -0.64842  -0.64265
 Alpha  occ. eigenvalues --   -0.62992  -0.61823  -0.60126  -0.59564  -0.59106
 Alpha  occ. eigenvalues --   -0.56902  -0.55231  -0.54781  -0.52439  -0.46743
 Alpha  occ. eigenvalues --   -0.46077  -0.44368
 Alpha virt. eigenvalues --   -0.26093  -0.14668  -0.14095  -0.12772  -0.11180
 Alpha virt. eigenvalues --   -0.10086  -0.09235  -0.07979  -0.07964  -0.07477
 Alpha virt. eigenvalues --   -0.07203  -0.07143  -0.05644  -0.05580  -0.05335

 Mulliken charges:
               1
     1  C    0.101602
     2  C   -0.409288
     3  C   -0.441994
     4  C    0.005917
     5  C    0.020090
     6  C   -0.437578
     7  C   -0.404535
     8  C    0.084053
     9  C   -0.337597
    10  C    0.090525
    11  C   -0.625802
    12  C    0.679151
    13  C   -0.644561
    14  C    0.700685
    15  H    0.236404
    16  H    0.254586
    17  H    0.247533
    18  H    0.220650
    19  H    0.190289
    20  H    0.223424
    21  H    0.250224
    22  H    0.257979
    23  H    0.238337
    24  H    0.249953
    25  H    0.249953
 Sum of Mulliken charges =   1.00000

 Dipole moment (field-independent basis, Debye):
    X=              0.0335    Y=             -0.4582    Z=             -0.0000  Tot=              0.4594
 Quadrupole moment (field-independent basis, Debye-Ang):
   XX=            -50.8633   YY=            -36.4974   ZZ=            -84.1404
   XY=            -10.3381   XZ=             -0.0000   YZ=             -0.0000

 Normal termination of Gaussian 16 at Tue Aug  2 11:54:35 2022.
