 Gaussian 16, Revision C.01,
 Gaussian 16:  ES64L-G16RevC.01  3-Jul-2019

 ---------------------------------------------------------------
 #n M062X/6-311++G(d,p) TD(NStates=1) EmpiricalDispersion=GD3 SP
 ---------------------------------------------------------------

 -----
 SP_75
 -----
 Symbolic Z-matrix:
 Charge =  1 Multiplicity = 1

                         Standard orientation:
 ---------------------------------------------------------------------
 Center     Atomic      Atomic             Coordinates (Angstroms)
 Number     Number       Type             X           Y           Z
 ---------------------------------------------------------------------
      1          6           0       -2.372029   -1.553397    0.000000
      2          6           0       -2.330224   -2.943666    0.000000
      3          6           0       -1.099300   -3.587633    0.000000
      4          6           0        0.081110   -2.845174    0.000000
      5          6           0        2.394631    1.504334    0.000000
      6          6           0        2.362261    2.917655    0.000000
      7          6           0        1.153017    3.590847    0.000000
      8          6           0       -0.020455    2.846753    0.000000
      9          6           0       -1.283767    0.690691    0.000000
     10          6           0        1.254894   -0.684504    0.000000
     11          6           0       -1.196339   -0.794165    0.000000
     12          6           0        0.059442   -1.440202    0.000000
     13          6           0        0.000000    1.428778    0.000000
     14          6           0        1.224287    0.742575    0.000000
     15          1           0       -3.327543   -1.043417    0.000000
     16          1           0       -3.247232   -3.514204    0.000000
     17          1           0       -1.049836   -4.667170    0.000000
     18          1           0        1.035821   -3.355077    0.000000
     19          1           0        2.208771   -1.193060    0.000000
     20          1           0        3.353327    1.001360    0.000000
     21          1           0        3.294939    3.463954    0.000000
     22          1           0        1.118785    4.669836    0.000000
     23          1           0       -0.980138    3.349246    0.000000
     24          1           0       -1.886031    1.025590    0.860685
     25          1           0       -1.886031    1.025590   -0.860685
 ---------------------------------------------------------------------

 SCF Done:  E(RM062X) =  -539.759814634     A.U. after   15 cycles

 Excitation energies and oscillator strengths:

 Excited State   1:      Singlet-A'     2.8088 eV  441.41 nm  f=0.0272  <S**2>=0.000
      47 -> 48         0.70410
 This state for optimization and/or second-order correction.
 Total Energy, E(TD-HF/TD-DFT) =  -539.656592493
 Copying the excited state density for this state as the 1-particle RhoCI density.

 The electronic state is 1-A'.
 Alpha  occ. eigenvalues --  -10.77669 -10.73411 -10.73121 -10.72558 -10.72325
 Alpha  occ. eigenvalues --  -10.71507 -10.71261 -10.71232 -10.70993 -10.70746
 Alpha  occ. eigenvalues --  -10.70039 -10.69908 -10.69718 -10.69554  -1.16424
 Alpha  occ. eigenvalues --   -1.12449  -1.06945  -1.05697  -1.01311  -1.00172
 Alpha  occ. eigenvalues --   -0.95769  -0.91044  -0.86417  -0.85892  -0.83805
 Alpha  occ. eigenvalues --   -0.78391  -0.76012  -0.74412  -0.69590  -0.69245
 Alpha  occ. eigenvalues --   -0.68481  -0.68173  -0.68109  -0.64781  -0.64265
 Alpha  occ. eigenvalues --   -0.62999  -0.61844  -0.60087  -0.59614  -0.59104
 Alpha  occ. eigenvalues --   -0.56887  -0.55228  -0.54796  -0.52441  -0.46666
 Alpha  occ. eigenvalues --   -0.46067  -0.44452
 Alpha virt. eigenvalues --   -0.26099  -0.14666  -0.14097  -0.12774  -0.11178
 Alpha virt. eigenvalues --   -0.10083  -0.09232  -0.07981  -0.07972  -0.07476
 Alpha virt. eigenvalues --   -0.07200  -0.07142  -0.05645  -0.05579  -0.05332

 Mulliken charges:
               1
     1  C    0.086238
     2  C   -0.404981
     3  C   -0.438350
     4  C    0.013239
     5  C    0.004122
     6  C   -0.441436
     7  C   -0.408109
     8  C    0.097684
     9  C   -0.344770
    10  C    0.086700
    11  C   -0.639488
    12  C    0.705247
    13  C   -0.626403
    14  C    0.691459
    15  H    0.238153
    16  H    0.257358
    17  H    0.249731
    18  H    0.222962
    19  H    0.190457
    20  H    0.221133
    21  H    0.247936
    22  H    0.255092
    23  H    0.236863
    24  H    0.249581
    25  H    0.249581
 Sum of Mulliken charges =   1.00000

 Dipole moment (field-independent basis, Debye):
    X=              0.0356    Y=             -0.3368    Z=             -0.0000  Tot=              0.3387
 Quadrupole moment (field-independent basis, Debye-Ang):
   XX=            -50.7904   YY=            -36.5658   ZZ=            -84.1419
   XY=             10.3925   XZ=              0.0000   YZ=             -0.0000

 Normal termination of Gaussian 16 at Tue Aug  2 12:50:10 2022.
