 Gaussian 16, Revision C.01,
 Gaussian 16:  ES64L-G16RevC.01  3-Jul-2019

 ---------------------------------------------------------------
 #n M062X/6-311++G(d,p) TD(NStates=1) EmpiricalDispersion=GD3 SP
 ---------------------------------------------------------------

 ------
 SP_125
 ------
 Symbolic Z-matrix:
 Charge =  1 Multiplicity = 1

                         Standard orientation:
 ---------------------------------------------------------------------
 Center     Atomic      Atomic             Coordinates (Angstroms)
 Number     Number       Type             X           Y           Z
 ---------------------------------------------------------------------
      1          6           0        0.098952   -2.809508    0.000000
      2          6           0        1.324451   -3.475507    0.000000
      3          6           0        2.530037   -2.765260    0.000000
      4          6           0        2.515029   -1.409160    0.000000
      5          6           0       -0.060777    2.790345    0.000000
      6          6           0       -1.317116    3.518575    0.000000
      7          6           0       -2.517946    2.852358    0.000000
      8          6           0       -2.465659    1.465546    0.000000
      9          6           0       -1.256649   -0.730447    0.000000
     10          6           0        1.257015    0.682883    0.000000
     11          6           0        0.058278   -1.448972    0.000000
     12          6           0        1.279614   -0.705131    0.000000
     13          6           0       -1.208722    0.734444    0.000000
     14          6           0        0.000000    1.413350    0.000000
     15          1           0       -0.819412   -3.383546    0.000000
     16          1           0        1.340370   -4.556381    0.000000
     17          1           0        3.467463   -3.303540    0.000000
     18          1           0        3.434030   -0.838018    0.000000
     19          1           0        2.181290    1.243654    0.000000
     20          1           0        0.854770    3.369664    0.000000
     21          1           0       -1.277683    4.599926    0.000000
     22          1           0       -3.459663    3.378253    0.000000
     23          1           0       -3.379945    0.883263    0.000000
     24          1           0       -1.880136   -1.037182    0.859585
     25          1           0       -1.880136   -1.037182   -0.859585
 ---------------------------------------------------------------------

 SCF Done:  E(RM062X) =  -539.749333233     A.U. after   16 cycles

 Excitation energies and oscillator strengths:

 Excited State   1:      Singlet-A'     2.5877 eV  479.13 nm  f=0.0174  <S**2>=0.000
      47 -> 48         0.70343
 This state for optimization and/or second-order correction.
 Total Energy, E(TD-HF/TD-DFT) =  -539.654237015
 Copying the excited state density for this state as the 1-particle RhoCI density.

 The electronic state is 1-A'.
 Alpha  occ. eigenvalues --  -10.77520 -10.73933 -10.72942 -10.72506 -10.72348
 Alpha  occ. eigenvalues --  -10.71998 -10.71789 -10.70987 -10.70644 -10.70297
 Alpha  occ. eigenvalues --  -10.70029 -10.69799 -10.69646 -10.69220  -1.16615
 Alpha  occ. eigenvalues --   -1.12480  -1.06934  -1.05948  -1.01268  -1.00559
 Alpha  occ. eigenvalues --   -0.95441  -0.91009  -0.86457  -0.85887  -0.83753
 Alpha  occ. eigenvalues --   -0.78290  -0.76215  -0.74341  -0.69903  -0.69362
 Alpha  occ. eigenvalues --   -0.68205  -0.68082  -0.68000  -0.65504  -0.64225
 Alpha  occ. eigenvalues --   -0.62627  -0.61414  -0.60628  -0.59196  -0.59100
 Alpha  occ. eigenvalues --   -0.56968  -0.55266  -0.54395  -0.52440  -0.47652
 Alpha  occ. eigenvalues --   -0.46141  -0.43455
 Alpha virt. eigenvalues --   -0.26115  -0.14666  -0.14062  -0.12751  -0.11199
 Alpha virt. eigenvalues --   -0.10100  -0.09277  -0.07946  -0.07897  -0.07490
 Alpha virt. eigenvalues --   -0.07219  -0.07129  -0.05648  -0.05570  -0.05367

 Mulliken charges:
               1
     1  C    0.067066
     2  C   -0.399710
     3  C   -0.429977
     4  C    0.034342
     5  C   -0.010732
     6  C   -0.444816
     7  C   -0.415965
     8  C    0.124501
     9  C   -0.346205
    10  C    0.078520
    11  C   -0.659566
    12  C    0.719601
    13  C   -0.589752
    14  C    0.652778
    15  H    0.240718
    16  H    0.261875
    17  H    0.253352
    18  H    0.226733
    19  H    0.188898
    20  H    0.217730
    21  H    0.244457
    22  H    0.250703
    23  H    0.234474
    24  H    0.250488
    25  H    0.250488
 Sum of Mulliken charges =   1.00000

 Dipole moment (field-independent basis, Debye):
    X=              0.8519    Y=             -1.1088    Z=             -0.0000  Tot=              1.3983
 Quadrupole moment (field-independent basis, Debye-Ang):
   XX=            -48.9702   YY=            -38.2530   ZZ=            -84.1241
   XY=            -11.5134   XZ=             -0.0000   YZ=              0.0000

 Normal termination of Gaussian 16 at Tue Aug  2 13:12:26 2022.
