 Gaussian 16, Revision C.01,
 Gaussian 16:  ES64L-G16RevC.01  3-Jul-2019

 ---------------------------------------------------------------
 #n M062X/6-311++G(d,p) TD(NStates=1) EmpiricalDispersion=GD3 SP
 ---------------------------------------------------------------

 -------
 SP_-150
 -------
 Symbolic Z-matrix:
 Charge =  1 Multiplicity = 1

                         Standard orientation:
 ---------------------------------------------------------------------
 Center     Atomic      Atomic             Coordinates (Angstroms)
 Number     Number       Type             X           Y           Z
 ---------------------------------------------------------------------
      1          6           0        0.026822    2.854670    0.000000
      2          6           0       -1.140328    3.610532    0.000000
      3          6           0       -2.340531    2.934988    0.000000
      4          6           0       -2.373473    1.502558    0.000000
      5          6           0       -0.090938   -2.862802    0.000000
      6          6           0        1.075771   -3.590890    0.000000
      7          6           0        2.306191   -2.938087    0.000000
      8          6           0        2.360168   -1.544423    0.000000
      9          6           0        1.272429    0.688636    0.000000
     10          6           0       -1.245155   -0.701924    0.000000
     11          6           0        0.000000    1.421246    0.000000
     12          6           0       -1.216996    0.738627    0.000000
     13          6           0        1.202009   -0.797889    0.000000
     14          6           0       -0.060697   -1.450954    0.000000
     15          1           0        0.993237    3.344999    0.000000
     16          1           0       -1.102585    4.688994    0.000000
     17          1           0       -3.279004    3.472738    0.000000
     18          1           0       -3.338545    1.010859    0.000000
     19          1           0       -2.201852   -1.205701    0.000000
     20          1           0       -1.050670   -3.362976    0.000000
     21          1           0        1.038439   -4.671234    0.000000
     22          1           0        3.222975   -3.510016    0.000000
     23          1           0        3.321470   -1.045409    0.000000
     24          1           0        1.872454    1.046006    0.857935
     25          1           0        1.872454    1.046006   -0.857935
 ---------------------------------------------------------------------

 SCF Done:  E(RM062X) =  -539.756169592     A.U. after   15 cycles

 Excitation energies and oscillator strengths:

 Excited State   1:      Singlet-A'     2.7185 eV  456.08 nm  f=0.0223  <S**2>=0.000
      47 -> 48         0.70358
 This state for optimization and/or second-order correction.
 Total Energy, E(TD-HF/TD-DFT) =  -539.656267698
 Copying the excited state density for this state as the 1-particle RhoCI density.

 The electronic state is 1-A'.
 Alpha  occ. eigenvalues --  -10.77600 -10.73623 -10.72764 -10.72746 -10.72048
 Alpha  occ. eigenvalues --  -10.71805 -10.71758 -10.70962 -10.70937 -10.70265
 Alpha  occ. eigenvalues --  -10.70165 -10.69864 -10.69778 -10.69372  -1.16543
 Alpha  occ. eigenvalues --   -1.12497  -1.06939  -1.05871  -1.01298  -1.00376
 Alpha  occ. eigenvalues --   -0.95642  -0.91056  -0.86438  -0.85911  -0.83805
 Alpha  occ. eigenvalues --   -0.78366  -0.76134  -0.74391  -0.69691  -0.69302
 Alpha  occ. eigenvalues --   -0.68393  -0.68126  -0.68084  -0.65107  -0.64260
 Alpha  occ. eigenvalues --   -0.62890  -0.61711  -0.60306  -0.59366  -0.59131
 Alpha  occ. eigenvalues --   -0.56945  -0.55255  -0.54669  -0.52434  -0.47085
 Alpha  occ. eigenvalues --   -0.46104  -0.44018
 Alpha virt. eigenvalues --   -0.26083  -0.14672  -0.14084  -0.12762  -0.11188
 Alpha virt. eigenvalues --   -0.10096  -0.09248  -0.07969  -0.07935  -0.07482
 Alpha virt. eigenvalues --   -0.07214  -0.07143  -0.05643  -0.05579  -0.05348

 Mulliken charges:
               1
     1  C    0.112662
     2  C   -0.412478
     3  C   -0.443066
     4  C    0.008158
     5  C    0.038477
     6  C   -0.435246
     7  C   -0.402334
     8  C    0.075966
     9  C   -0.322552
    10  C    0.096832
    11  C   -0.620567
    12  C    0.645368
    13  C   -0.653892
    14  C    0.692119
    15  H    0.235156
    16  H    0.253048
    17  H    0.246296
    18  H    0.219218
    19  H    0.189654
    20  H    0.224903
    21  H    0.251674
    22  H    0.259785
    23  H    0.238991
    24  H    0.250915
    25  H    0.250915
 Sum of Mulliken charges =   1.00000

 Dipole moment (field-independent basis, Debye):
    X=              0.2403    Y=             -0.8206    Z=              0.0000  Tot=              0.8551
 Quadrupole moment (field-independent basis, Debye-Ang):
   XX=            -51.0793   YY=            -36.2685   ZZ=            -84.1339
   XY=            -10.1900   XZ=              0.0000   YZ=              0.0000

 Normal termination of Gaussian 16 at Tue Aug  2 10:39:52 2022.
