 Gaussian 16, Revision C.01,
 Gaussian 16:  ES64L-G16RevC.01  3-Jul-2019

 ---------------------------------------------------------------
 #n M062X/6-311++G(d,p) TD(NStates=1) EmpiricalDispersion=GD3 SP
 ---------------------------------------------------------------

 ------
 SP_150
 ------
 Symbolic Z-matrix:
 Charge =  1 Multiplicity = 1

                         Standard orientation:
 ---------------------------------------------------------------------
 Center     Atomic      Atomic             Coordinates (Angstroms)
 Number     Number       Type             X           Y           Z
 ---------------------------------------------------------------------
      1          6           0       -2.369698   -1.554903    0.000000
      2          6           0       -2.324387   -2.944234    0.000000
      3          6           0       -1.092193   -3.590367    0.000000
      4          6           0        0.083878   -2.849926    0.000000
      5          6           0        2.389710    1.503958    0.000000
      6          6           0        2.358932    2.922175    0.000000
      7          6           0        1.151165    3.597067    0.000000
      8          6           0       -0.019459    2.851345    0.000000
      9          6           0       -1.288209    0.694061    0.000000
     10          6           0        1.252794   -0.688994    0.000000
     11          6           0       -1.197953   -0.795333    0.000000
     12          6           0        0.059644   -1.441963    0.000000
     13          6           0       -0.000000    1.427184    0.000000
     14          6           0        1.221586    0.741228    0.000000
     15          1           0       -3.326861   -1.048230    0.000000
     16          1           0       -3.240836   -3.515829    0.000000
     17          1           0       -1.045053   -4.669820    0.000000
     18          1           0        1.040134   -3.356665    0.000000
     19          1           0        2.207228   -1.196241    0.000000
     20          1           0        3.349585    1.003209    0.000000
     21          1           0        3.293186    3.465643    0.000000
     22          1           0        1.116863    4.675902    0.000000
     23          1           0       -0.980499    3.351225    0.000000
     24          1           0       -1.884310    1.031509    0.862060
     25          1           0       -1.884310    1.031509   -0.862060
 ---------------------------------------------------------------------

 SCF Done:  E(RM062X) =  -539.759275645     A.U. after   15 cycles

 Excitation energies and oscillator strengths:

 Excited State   1:      Singlet-A'     2.7918 eV  444.10 nm  f=0.0256  <S**2>=0.000
      47 -> 48         0.70396
 This state for optimization and/or second-order correction.
 Total Energy, E(TD-HF/TD-DFT) =  -539.656678417
 Copying the excited state density for this state as the 1-particle RhoCI density.

 The electronic state is 1-A'.
 Alpha  occ. eigenvalues --  -10.77673 -10.73516 -10.73079 -10.72624 -10.72274
 Alpha  occ. eigenvalues --  -10.71576 -10.71387 -10.71165 -10.71012 -10.70615
 Alpha  occ. eigenvalues --  -10.70073 -10.69875 -10.69767 -10.69522  -1.16401
 Alpha  occ. eigenvalues --   -1.12429  -1.06945  -1.05656  -1.01308  -1.00157
 Alpha  occ. eigenvalues --   -0.95754  -0.91029  -0.86415  -0.85879  -0.83792
 Alpha  occ. eigenvalues --   -0.78380  -0.75993  -0.74403  -0.69624  -0.69246
 Alpha  occ. eigenvalues --   -0.68451  -0.68148  -0.68119  -0.64826  -0.64244
 Alpha  occ. eigenvalues --   -0.62922  -0.61814  -0.60170  -0.59556  -0.59116
 Alpha  occ. eigenvalues --   -0.56876  -0.55241  -0.54745  -0.52445  -0.46715
 Alpha  occ. eigenvalues --   -0.46079  -0.44393
 Alpha virt. eigenvalues --   -0.26113  -0.14663  -0.14097  -0.12776  -0.11177
 Alpha virt. eigenvalues --   -0.10080  -0.09235  -0.07978  -0.07975  -0.07475
 Alpha virt. eigenvalues --   -0.07197  -0.07139  -0.05647  -0.05577  -0.05331

 Mulliken charges:
               1
     1  C    0.082046
     2  C   -0.403502
     3  C   -0.437249
     4  C    0.008070
     5  C   -0.004798
     6  C   -0.442212
     7  C   -0.408048
     8  C    0.098413
     9  C   -0.358024
    10  C    0.078098
    11  C   -0.637279
    12  C    0.720547
    13  C   -0.615655
    14  C    0.701470
    15  H    0.238722
    16  H    0.257836
    17  H    0.250105
    18  H    0.223443
    19  H    0.190539
    20  H    0.220765
    21  H    0.247422
    22  H    0.254430
    23  H    0.236793
    24  H    0.249034
    25  H    0.249034
 Sum of Mulliken charges =   1.00000

 Dipole moment (field-independent basis, Debye):
    X=             -0.0275    Y=             -0.4618    Z=             -0.0000  Tot=              0.4626
 Quadrupole moment (field-independent basis, Debye-Ang):
   XX=            -50.8636   YY=            -36.4647   ZZ=            -84.1421
   XY=             10.3619   XZ=              0.0000   YZ=             -0.0000

 Normal termination of Gaussian 16 at Tue Aug  2 13:35:48 2022.
