 Gaussian 16, Revision C.01,
 Gaussian 16:  ES64L-G16RevC.01  3-Jul-2019

 ---------------------------------------------------------------
 #n M062X/6-311++G(d,p) TD(NStates=1) EmpiricalDispersion=GD3 SP
 ---------------------------------------------------------------

 -------
 SP_-150
 -------
 Symbolic Z-matrix:
 Charge =  1 Multiplicity = 1

                         Standard orientation:
 ---------------------------------------------------------------------
 Center     Atomic      Atomic             Coordinates (Angstroms)
 Number     Number       Type             X           Y           Z
 ---------------------------------------------------------------------
      1          6           0        0.026414    2.851469    0.000000
      2          6           0       -1.142921    3.605001    0.000000
      3          6           0       -2.345009    2.930565    0.000000
      4          6           0       -2.378593    1.502972    0.000000
      5          6           0       -0.088302   -2.858242    0.000000
      6          6           0        1.082249   -3.589193    0.000000
      7          6           0        2.312130   -2.938573    0.000000
      8          6           0        2.362839   -1.544914    0.000000
      9          6           0        1.271841    0.687376    0.000000
     10          6           0       -1.247410   -0.697505    0.000000
     11          6           0        0.000000    1.422990    0.000000
     12          6           0       -1.219225    0.739779    0.000000
     13          6           0        1.200507   -0.796837    0.000000
     14          6           0       -0.060416   -1.448700    0.000000
     15          1           0        0.991304    3.344650    0.000000
     16          1           0       -1.105685    4.683606    0.000000
     17          1           0       -3.281968    3.470764    0.000000
     18          1           0       -3.342269    1.008720    0.000000
     19          1           0       -2.203471   -1.202538    0.000000
     20          1           0       -1.046648   -3.361199    0.000000
     21          1           0        1.042222   -4.669457    0.000000
     22          1           0        3.229208   -3.509817    0.000000
     23          1           0        3.322605   -1.042884    0.000000
     24          1           0        1.875040    1.040516    0.857660
     25          1           0        1.875040    1.040516   -0.857660
 ---------------------------------------------------------------------

 SCF Done:  E(RM062X) =  -539.757341069     A.U. after   15 cycles

 Excitation energies and oscillator strengths:

 Excited State   1:      Singlet-A'     2.7464 eV  451.45 nm  f=0.0238  <S**2>=0.000
      47 -> 48         0.70367
 This state for optimization and/or second-order correction.
 Total Energy, E(TD-HF/TD-DFT) =  -539.656414347
 Copying the excited state density for this state as the 1-particle RhoCI density.

 The electronic state is 1-A'.
 Alpha  occ. eigenvalues --  -10.77614 -10.73547 -10.72831 -10.72693 -10.72112
 Alpha  occ. eigenvalues --  -10.71695 -10.71671 -10.71009 -10.70957 -10.70386
 Alpha  occ. eigenvalues --  -10.70133 -10.69822 -10.69810 -10.69411  -1.16531
 Alpha  occ. eigenvalues --   -1.12500  -1.06941  -1.05857  -1.01303  -1.00340
 Alpha  occ. eigenvalues --   -0.95681  -0.91064  -0.86434  -0.85915  -0.83814
 Alpha  occ. eigenvalues --   -0.78379  -0.76119  -0.74401  -0.69647  -0.69289
 Alpha  occ. eigenvalues --   -0.68430  -0.68152  -0.68085  -0.65016  -0.64270
 Alpha  occ. eigenvalues --   -0.62957  -0.61762  -0.60229  -0.59435  -0.59116
 Alpha  occ. eigenvalues --   -0.56940  -0.55245  -0.54726  -0.52433  -0.46967
 Alpha  occ. eigenvalues --   -0.46094  -0.44139
 Alpha virt. eigenvalues --   -0.26077  -0.14673  -0.14087  -0.12764  -0.11186
 Alpha virt. eigenvalues --   -0.10095  -0.09242  -0.07973  -0.07942  -0.07481
 Alpha virt. eigenvalues --   -0.07213  -0.07145  -0.05642  -0.05581  -0.05345

 Mulliken charges:
               1
     1  C    0.109341
     2  C   -0.411493
     3  C   -0.442620
     4  C    0.012537
     5  C    0.038254
     6  C   -0.436280
     7  C   -0.402951
     8  C    0.078416
     9  C   -0.318510
    10  C    0.099683
    11  C   -0.625514
    12  C    0.645223
    13  C   -0.652027
    14  C    0.685270
    15  H    0.235373
    16  H    0.253631
    17  H    0.246756
    18  H    0.219647
    19  H    0.189794
    20  H    0.224426
    21  H    0.251243
    22  H    0.259249
    23  H    0.238583
    24  H    0.250985
    25  H    0.250985
 Sum of Mulliken charges =   1.00000

 Dipole moment (field-independent basis, Debye):
    X=              0.1738    Y=             -0.6987    Z=              0.0000  Tot=              0.7200
 Quadrupole moment (field-independent basis, Debye-Ang):
   XX=            -51.0076   YY=            -36.3616   ZZ=            -84.1357
   XY=            -10.2277   XZ=              0.0000   YZ=              0.0000

 Normal termination of Gaussian 16 at Tue Aug  2 10:38:45 2022.
