 Gaussian 16, Revision C.01,
 Gaussian 16:  ES64L-G16RevC.01  3-Jul-2019

 ---------------------------------------------------------------
 #n M062X/6-311++G(d,p) TD(NStates=1) EmpiricalDispersion=GD3 SP
 ---------------------------------------------------------------

 -------
 SP_-125
 -------
 Symbolic Z-matrix:
 Charge =  1 Multiplicity = 1

                         Standard orientation:
 ---------------------------------------------------------------------
 Center     Atomic      Atomic             Coordinates (Angstroms)
 Number     Number       Type             X           Y           Z
 ---------------------------------------------------------------------
      1          6           0        2.468471    1.467105    0.000000
      2          6           0        2.523727    2.853243    0.000000
      3          6           0        1.322835    3.517147    0.000000
      4          6           0        0.062743    2.785753    0.000000
      5          6           0       -2.520154   -1.409506    0.000000
      6          6           0       -2.534524   -2.760846    0.000000
      7          6           0       -1.326706   -3.470311    0.000000
      8          6           0       -0.099597   -2.806983    0.000000
      9          6           0        1.258115   -0.730177    0.000000
     10          6           0       -1.259734    0.678551    0.000000
     11          6           0        1.207150    0.733684    0.000000
     12          6           0        0.000000    1.410850    0.000000
     13          6           0       -0.058258   -1.450812    0.000000
     14          6           0       -1.281622   -0.706184    0.000000
     15          1           0        3.381153    0.882148    0.000000
     16          1           0        3.465529    3.378733    0.000000
     17          1           0        1.280406    4.598546    0.000000
     18          1           0       -0.851392    3.367481    0.000000
     19          1           0       -2.183320    1.240414    0.000000
     20          1           0       -3.437538   -0.835845    0.000000
     21          1           0       -3.470584   -3.301584    0.000000
     22          1           0       -1.343247   -4.551289    0.000000
     23          1           0        0.817028   -3.383787    0.000000
     24          1           0        1.883645   -1.031952    0.859860
     25          1           0        1.883645   -1.031952   -0.859860
 ---------------------------------------------------------------------

 SCF Done:  E(RM062X) =  -539.747054586     A.U. after   16 cycles

 Excitation energies and oscillator strengths:

 Excited State   1:      Singlet-A'     2.5525 eV  485.75 nm  f=0.0165  <S**2>=0.000
      47 -> 48         0.70342
 This state for optimization and/or second-order correction.
 Total Energy, E(TD-HF/TD-DFT) =  -539.653253621
 Copying the excited state density for this state as the 1-particle RhoCI density.

 The electronic state is 1-A'.
 Alpha  occ. eigenvalues --  -10.77492 -10.74005 -10.72986 -10.72486 -10.72438
 Alpha  occ. eigenvalues --  -10.72053 -10.71720 -10.70992 -10.70570 -10.70329
 Alpha  occ. eigenvalues --  -10.70069 -10.69697 -10.69604 -10.69182  -1.16645
 Alpha  occ. eigenvalues --   -1.12479  -1.06933  -1.05984  -1.01259  -1.00619
 Alpha  occ. eigenvalues --   -0.95382  -0.90995  -0.86464  -0.85881  -0.83738
 Alpha  occ. eigenvalues --   -0.78267  -0.76244  -0.74328  -0.69961  -0.69379
 Alpha  occ. eigenvalues --   -0.68153  -0.68080  -0.67969  -0.65607  -0.64219
 Alpha  occ. eigenvalues --   -0.62572  -0.61326  -0.60707  -0.59207  -0.59035
 Alpha  occ. eigenvalues --   -0.56977  -0.55262  -0.54319  -0.52442  -0.47810
 Alpha  occ. eigenvalues --   -0.46150  -0.43302
 Alpha virt. eigenvalues --   -0.26123  -0.14665  -0.14055  -0.12746  -0.11203
 Alpha virt. eigenvalues --   -0.10102  -0.09286  -0.07939  -0.07885  -0.07493
 Alpha virt. eigenvalues --   -0.07221  -0.07124  -0.05649  -0.05567  -0.05373

 Mulliken charges:
               1
     1  C    0.127224
     2  C   -0.416826
     3  C   -0.445140
     4  C   -0.014342
     5  C    0.033846
     6  C   -0.428505
     7  C   -0.399051
     8  C    0.064777
     9  C   -0.351323
    10  C    0.073756
    11  C   -0.580783
    12  C    0.653263
    13  C   -0.660991
    14  C    0.724221
    15  H    0.234295
    16  H    0.250140
    17  H    0.244015
    18  H    0.217390
    19  H    0.188631
    20  H    0.227186
    21  H    0.253776
    22  H    0.262401
    23  H    0.241120
    24  H    0.250460
    25  H    0.250460
 Sum of Mulliken charges =   1.00000

 Dipole moment (field-independent basis, Debye):
    X=             -0.9187    Y=             -1.2276    Z=              0.0000  Tot=              1.5333
 Quadrupole moment (field-independent basis, Debye-Ang):
   XX=            -48.8875   YY=            -38.2992   ZZ=            -84.1206
   XY=             11.5761   XZ=              0.0000   YZ=              0.0000

 Normal termination of Gaussian 16 at Tue Aug  2 11:01:25 2022.
