 Gaussian 16, Revision C.01,
 Gaussian 16:  ES64L-G16RevC.01  3-Jul-2019

 ---------------------------------------------------------------
 #n M062X/6-311++G(d,p) TD(NStates=1) EmpiricalDispersion=GD3 SP
 ---------------------------------------------------------------

 -------
 SP_-100
 -------
 Symbolic Z-matrix:
 Charge =  1 Multiplicity = 1

                         Standard orientation:
 ---------------------------------------------------------------------
 Center     Atomic      Atomic             Coordinates (Angstroms)
 Number     Number       Type             X           Y           Z
 ---------------------------------------------------------------------
      1          6           0        0.025877    2.859275    0.000000
      2          6           0       -1.138405    3.616765    0.000000
      3          6           0       -2.337150    2.939519    0.000000
      4          6           0       -2.368549    1.502185    0.000000
      5          6           0       -0.093773   -2.867536    0.000000
      6          6           0        1.068611   -3.593595    0.000000
      7          6           0        2.300327   -2.938641    0.000000
      8          6           0        2.357825   -1.545934    0.000000
      9          6           0        1.276947    0.691886    0.000000
     10          6           0       -1.243101   -0.706411    0.000000
     11          6           0        0.000000    1.419662    0.000000
     12          6           0       -1.214302    0.737288    0.000000
     13          6           0        1.203607   -0.799076    0.000000
     14          6           0       -0.060934   -1.452710    0.000000
     15          1           0        0.993636    3.346971    0.000000
     16          1           0       -1.100580    4.695072    0.000000
     17          1           0       -3.277213    3.474460    0.000000
     18          1           0       -3.334790    1.012730    0.000000
     19          1           0       -2.200354   -1.208866    0.000000
     20          1           0       -1.055039   -3.364528    0.000000
     21          1           0        1.033591   -4.673876    0.000000
     22          1           0        3.216545   -3.511638    0.000000
     23          1           0        3.320764   -1.050247    0.000000
     24          1           0        1.870784    1.051932    0.859310
     25          1           0        1.870784    1.051932   -0.859310
 ---------------------------------------------------------------------

 SCF Done:  E(RM062X) =  -539.754873739     A.U. after   15 cycles

 Excitation energies and oscillator strengths:

 Excited State   1:      Singlet-A'     2.6872 eV  461.38 nm  f=0.0206  <S**2>=0.000
      47 -> 48         0.70353
 This state for optimization and/or second-order correction.
 Total Energy, E(TD-HF/TD-DFT) =  -539.656120037
 Copying the excited state density for this state as the 1-particle RhoCI density.

 The electronic state is 1-A'.
 Alpha  occ. eigenvalues --  -10.77592 -10.73726 -10.72805 -10.72721 -10.71993
 Alpha  occ. eigenvalues --  -10.71936 -10.71822 -10.70979 -10.70867 -10.70200
 Alpha  occ. eigenvalues --  -10.70141 -10.69911 -10.69746 -10.69340  -1.16534
 Alpha  occ. eigenvalues --   -1.12477  -1.06938  -1.05848  -1.01291  -1.00389
 Alpha  occ. eigenvalues --   -0.95600  -0.91037  -0.86439  -0.85897  -0.83786
 Alpha  occ. eigenvalues --   -0.78346  -0.76130  -0.74376  -0.69747  -0.69311
 Alpha  occ. eigenvalues --   -0.68343  -0.68090  -0.68088  -0.65193  -0.64242
 Alpha  occ. eigenvalues --   -0.62799  -0.61640  -0.60398  -0.59302  -0.59151
 Alpha  occ. eigenvalues --   -0.56940  -0.55262  -0.54595  -0.52438  -0.47204
 Alpha  occ. eigenvalues --   -0.46116  -0.43895
 Alpha virt. eigenvalues --   -0.26099  -0.14668  -0.14081  -0.12762  -0.11189
 Alpha virt. eigenvalues --   -0.10094  -0.09254  -0.07964  -0.07932  -0.07483
 Alpha virt. eigenvalues --   -0.07212  -0.07138  -0.05645  -0.05576  -0.05350

 Mulliken charges:
               1
     1  C    0.114806
     2  C   -0.413113
     3  C   -0.443813
     4  C   -0.001686
     5  C    0.031426
     6  C   -0.433719
     7  C   -0.401789
     8  C    0.073822
     9  C   -0.337359
    10  C    0.087726
    11  C   -0.610014
    12  C    0.659390
    13  C   -0.654587
    14  C    0.709082
    15  H    0.235168
    16  H    0.252380
    17  H    0.245785
    18  H    0.218889
    19  H    0.189618
    20  H    0.225335
    21  H    0.252041
    22  H    0.260250
    23  H    0.239614
    24  H    0.250373
    25  H    0.250373
 Sum of Mulliken charges =   1.00000

 Dipole moment (field-independent basis, Debye):
    X=              0.3037    Y=             -0.9441    Z=              0.0000  Tot=              0.9917
 Quadrupole moment (field-independent basis, Debye-Ang):
   XX=            -51.1506   YY=            -36.1558   ZZ=            -84.1328
   XY=            -10.1662   XZ=              0.0000   YZ=              0.0000

 Normal termination of Gaussian 16 at Tue Aug  2 11:12:27 2022.
