 Gaussian 16, Revision C.01,
 Gaussian 16:  ES64L-G16RevC.01  3-Jul-2019

 ---------------------------------------------------------------
 #n M062X/6-311++G(d,p) TD(NStates=1) EmpiricalDispersion=GD3 SP
 ---------------------------------------------------------------

 ----
 SP_0
 ----
 Symbolic Z-matrix:
 Charge =  1 Multiplicity = 1

                         Standard orientation:
 ---------------------------------------------------------------------
 Center     Atomic      Atomic             Coordinates (Angstroms)
 Number     Number       Type             X           Y           Z
 ---------------------------------------------------------------------
      1          6           0        0.022310    2.855667    0.000000
      2          6           0       -1.144983    3.607100    0.000000
      3          6           0       -2.348340    2.930890    0.000000
      4          6           0       -2.379180    1.503099    0.000000
      5          6           0       -0.088854   -2.858774    0.000000
      6          6           0        1.080240   -3.592241    0.000000
      7          6           0        2.312372   -2.941703    0.000000
      8          6           0        2.363833   -1.550915    0.000000
      9          6           0        1.283607    0.693372    0.000000
     10          6           0       -1.247981   -0.697706    0.000000
     11          6           0       -0.000000    1.423467    0.000000
     12          6           0       -1.217828    0.739220    0.000000
     13          6           0        1.200804   -0.797222    0.000000
     14          6           0       -0.060268   -1.447205    0.000000
     15          1           0        0.986674    3.349518    0.000000
     16          1           0       -1.109028    4.685670    0.000000
     17          1           0       -3.285508    3.469996    0.000000
     18          1           0       -3.342190    1.007912    0.000000
     19          1           0       -2.203805   -1.202545    0.000000
     20          1           0       -1.047659   -3.360546    0.000000
     21          1           0        1.039067   -4.672060    0.000000
     22          1           0        3.228639   -3.514092    0.000000
     23          1           0        3.323918   -1.049805    0.000000
     24          1           0        1.877747    1.041827    0.860960
     25          1           0        1.877747    1.041827   -0.860960
 ---------------------------------------------------------------------

 SCF Done:  E(RM062X) =  -539.757552133     A.U. after   15 cycles

 Excitation energies and oscillator strengths:

 Excited State   1:      Singlet-A'     2.7446 eV  451.73 nm  f=0.0229  <S**2>=0.000
      47 -> 48         0.70370
 This state for optimization and/or second-order correction.
 Total Energy, E(TD-HF/TD-DFT) =  -539.656688631
 Copying the excited state density for this state as the 1-particle RhoCI density.

 The electronic state is 1-A'.
 Alpha  occ. eigenvalues --  -10.77641 -10.73630 -10.72906 -10.72720 -10.72138
 Alpha  occ. eigenvalues --  -10.71702 -10.71658 -10.71019 -10.70998 -10.70373
 Alpha  occ. eigenvalues --  -10.70138 -10.69841 -10.69810 -10.69433  -1.16455
 Alpha  occ. eigenvalues --   -1.12448  -1.06942  -1.05733  -1.01300  -1.00252
 Alpha  occ. eigenvalues --   -0.95690  -0.91033  -0.86425  -0.85887  -0.83790
 Alpha  occ. eigenvalues --   -0.78366  -0.76049  -0.74391  -0.69676  -0.69274
 Alpha  occ. eigenvalues --   -0.68404  -0.68122  -0.68107  -0.64988  -0.64240
 Alpha  occ. eigenvalues --   -0.62867  -0.61739  -0.60278  -0.59438  -0.59131
 Alpha  occ. eigenvalues --   -0.56903  -0.55251  -0.54683  -0.52443  -0.46927
 Alpha  occ. eigenvalues --   -0.46101  -0.44170
 Alpha virt. eigenvalues --   -0.26107  -0.14665  -0.14090  -0.12771  -0.11182
 Alpha virt. eigenvalues --   -0.10085  -0.09242  -0.07972  -0.07958  -0.07478
 Alpha virt. eigenvalues --   -0.07203  -0.07139  -0.05646  -0.05576  -0.05339

 Mulliken charges:
               1
     1  C    0.106209
     2  C   -0.410419
     3  C   -0.443266
     4  C   -0.004435
     5  C    0.017872
     6  C   -0.435401
     7  C   -0.402753
     8  C    0.078064
     9  C   -0.349864
    10  C    0.082022
    11  C   -0.611866
    12  C    0.684162
    13  C   -0.646505
    14  C    0.717379
    15  H    0.236019
    16  H    0.253377
    17  H    0.246590
    18  H    0.219845
    19  H    0.190174
    20  H    0.224361
    21  H    0.251057
    22  H    0.259034
    23  H    0.239219
    24  H    0.249562
    25  H    0.249562
 Sum of Mulliken charges =   1.00000

 Dipole moment (field-independent basis, Debye):
    X=              0.1646    Y=             -0.7044    Z=              0.0000  Tot=              0.7234
 Quadrupole moment (field-independent basis, Debye-Ang):
   XX=            -51.0081   YY=            -36.3112   ZZ=            -84.1385
   XY=            -10.2641   XZ=              0.0000   YZ=              0.0000

 Normal termination of Gaussian 16 at Tue Aug  2 12:11:47 2022.
