 Gaussian 16, Revision C.01,
 Gaussian 16:  ES64L-G16RevC.01  3-Jul-2019

 ---------------------------------------------------------------
 #n M062X/6-311++G(d,p) TD(NStates=1) EmpiricalDispersion=GD3 SP
 ---------------------------------------------------------------

 -----
 SP_25
 -----
 Symbolic Z-matrix:
 Charge =  1 Multiplicity = 1

                         Standard orientation:
 ---------------------------------------------------------------------
 Center     Atomic      Atomic             Coordinates (Angstroms)
 Number     Number       Type             X           Y           Z
 ---------------------------------------------------------------------
      1          6           0        1.360132    2.493607    0.000000
      2          6           0        0.671815    3.701985    0.000000
      3          6           0       -0.714329    3.684163    0.000000
      4          6           0       -1.407637    2.463208    0.000000
      5          6           0       -1.407637   -2.463204    0.000000
      6          6           0       -0.714329   -3.684159    0.000000
      7          6           0        0.671815   -3.701981    0.000000
      8          6           0        1.360132   -2.493603    0.000000
      9          6           0        1.455570   -0.000023    0.000000
     10          6           0       -1.429288    0.000002    0.000000
     11          6           0        0.677091    1.262132    0.000000
     12          6           0       -0.730653    1.237273    0.000000
     13          6           0        0.677091   -1.262128    0.000000
     14          6           0       -0.730653   -1.237269    0.000000
     15          1           0        2.443323    2.489173    0.000000
     16          1           0        1.211315    4.637330    0.000000
     17          1           0       -1.272973    4.609414    0.000000
     18          1           0       -2.490133    2.467402    0.000000
     19          1           0       -2.510315    0.000002    0.000000
     20          1           0       -2.490133   -2.467398    0.000000
     21          1           0       -1.272973   -4.609410    0.000000
     22          1           0        1.211315   -4.637326    0.000000
     23          1           0        2.443323   -2.489169    0.000000
     24          1           0        2.146288    0.000002    0.860135
     25          1           0        2.146288    0.000002   -0.860135
 ---------------------------------------------------------------------

 SCF Done:  E(RM062X) =  -539.760255618     A.U. after   15 cycles

 Excitation energies and oscillator strengths:

 Excited State   1:      Singlet-A'     2.8230 eV  439.19 nm  f=0.0286  <S**2>=0.000
      47 -> 48         0.70426
 This state for optimization and/or second-order correction.
 Total Energy, E(TD-HF/TD-DFT) =  -539.656510891
 Copying the excited state density for this state as the 1-particle RhoCI density.

 The electronic state is 1-A'.
 Alpha  occ. eigenvalues --  -10.77670 -10.73254 -10.73253 -10.72441 -10.72439
 Alpha  occ. eigenvalues --  -10.71370 -10.71370 -10.71003 -10.71003 -10.70986
 Alpha  occ. eigenvalues --  -10.69973 -10.69973 -10.69633 -10.69633  -1.16430
 Alpha  occ. eigenvalues --   -1.12457  -1.06945  -1.05710  -1.01313  -1.00170
 Alpha  occ. eigenvalues --   -0.95784  -0.91051  -0.86417  -0.85897  -0.83812
 Alpha  occ. eigenvalues --   -0.78398  -0.76016  -0.74417  -0.69567  -0.69242
 Alpha  occ. eigenvalues --   -0.68500  -0.68188  -0.68106  -0.64736  -0.64278
 Alpha  occ. eigenvalues --   -0.63046  -0.61866  -0.60018  -0.59673  -0.59095
 Alpha  occ. eigenvalues --   -0.56890  -0.55218  -0.54830  -0.52439  -0.46618
 Alpha  occ. eigenvalues --   -0.46056  -0.44509
 Alpha virt. eigenvalues --   -0.26093  -0.14668  -0.14098  -0.12774  -0.11178
 Alpha virt. eigenvalues --   -0.10085  -0.09230  -0.07983  -0.07973  -0.07475
 Alpha virt. eigenvalues --   -0.07202  -0.07145  -0.05644  -0.05581  -0.05331

 Mulliken charges:
               1
     1  C    0.092845
     2  C   -0.406599
     3  C   -0.440100
     4  C    0.011688
     5  C    0.011677
     6  C   -0.440100
     7  C   -0.406614
     8  C    0.092822
     9  C   -0.339154
    10  C    0.090328
    11  C   -0.634744
    12  C    0.691768
    13  C   -0.634770
    14  C    0.691783
    15  H    0.237388
    16  H    0.256265
    17  H    0.248859
    18  H    0.222024
    19  H    0.190462
    20  H    0.222024
    21  H    0.248859
    22  H    0.256265
    23  H    0.237389
    24  H    0.249819
    25  H    0.249819
 Sum of Mulliken charges =   1.00000

 Dipole moment (field-independent basis, Debye):
    X=             -0.1894    Y=              0.0000    Z=              0.0000  Tot=              0.1894
 Quadrupole moment (field-independent basis, Debye-Ang):
   XX=            -56.2659   YY=            -31.1046   ZZ=            -84.1423
   XY=              0.0000   XZ=              0.0000   YZ=              0.0000

 Normal termination of Gaussian 16 at Tue Aug  2 12:21:38 2022.
