 Gaussian 16, Revision C.01,
 Gaussian 16:  ES64L-G16RevC.01  3-Jul-2019

 ---------------------------------------------------------------
 #n M062X/6-311++G(d,p) TD(NStates=1) EmpiricalDispersion=GD3 SP
 ---------------------------------------------------------------

 ------
 SP_125
 ------
 Symbolic Z-matrix:
 Charge =  1 Multiplicity = 1

                         Standard orientation:
 ---------------------------------------------------------------------
 Center     Atomic      Atomic             Coordinates (Angstroms)
 Number     Number       Type             X           Y           Z
 ---------------------------------------------------------------------
      1          6           0       -2.360999   -1.549425    0.000000
      2          6           0       -2.306400   -2.940696    0.000000
      3          6           0       -1.074105   -3.593431    0.000000
      4          6           0        0.091389   -2.863251    0.000000
      5          6           0        2.373964    1.502654    0.000000
      6          6           0        2.343309    2.935250    0.000000
      7          6           0        1.142050    3.612275    0.000000
      8          6           0       -0.023402    2.858166    0.000000
      9          6           0       -1.282193    0.693711    0.000000
     10          6           0        1.245627   -0.702099    0.000000
     11          6           0       -1.202261   -0.798213    0.000000
     12          6           0        0.060566   -1.449714    0.000000
     13          6           0        0.000000    1.421638    0.000000
     14          6           0        1.215830    0.738152    0.000000
     15          1           0       -3.322564   -1.051175    0.000000
     16          1           0       -3.222509   -3.513576    0.000000
     17          1           0       -1.035821   -4.673404    0.000000
     18          1           0        1.051501   -3.362439    0.000000
     19          1           0        2.202125   -1.205717    0.000000
     20          1           0        3.338478    1.010173    0.000000
     21          1           0        3.281960    3.472086    0.000000
     22          1           0        1.105377    4.690708    0.000000
     23          1           0       -0.989377    3.349056    0.000000
     24          1           0       -1.874711    1.047095    0.860685
     25          1           0       -1.874711    1.047095   -0.860685
 ---------------------------------------------------------------------

 SCF Done:  E(RM062X) =  -539.756354470     A.U. after   15 cycles

 Excitation energies and oscillator strengths:

 Excited State   1:      Singlet-A'     2.7164 eV  456.43 nm  f=0.0216  <S**2>=0.000
      47 -> 48         0.70361
 This state for optimization and/or second-order correction.
 Total Energy, E(TD-HF/TD-DFT) =  -539.656529097
 Copying the excited state density for this state as the 1-particle RhoCI density.

 The electronic state is 1-A'.
 Alpha  occ. eigenvalues --  -10.77622 -10.73692 -10.72826 -10.72768 -10.72070
 Alpha  occ. eigenvalues --  -10.71795 -10.71764 -10.70996 -10.70945 -10.70254
 Alpha  occ. eigenvalues --  -10.70170 -10.69879 -10.69778 -10.69391  -1.16480
 Alpha  occ. eigenvalues --   -1.12454  -1.06941  -1.05768  -1.01295  -1.00303
 Alpha  occ. eigenvalues --   -0.95649  -0.91030  -0.86430  -0.85887  -0.83785
 Alpha  occ. eigenvalues --   -0.78355  -0.76077  -0.74382  -0.69713  -0.69289
 Alpha  occ. eigenvalues --   -0.68371  -0.68102  -0.68101  -0.65082  -0.64235
 Alpha  occ. eigenvalues --   -0.62822  -0.61687  -0.60344  -0.59372  -0.59143
 Alpha  occ. eigenvalues --   -0.56915  -0.55258  -0.54635  -0.52442  -0.47054
 Alpha  occ. eigenvalues --   -0.46110  -0.44041
 Alpha virt. eigenvalues --   -0.26107  -0.14665  -0.14086  -0.12768  -0.11185
 Alpha virt. eigenvalues --   -0.10088  -0.09248  -0.07968  -0.07948  -0.07480
 Alpha virt. eigenvalues --   -0.07205  -0.07138  -0.05646  -0.05576  -0.05343

 Mulliken charges:
               1
     1  C    0.075810
     2  C   -0.402138
     3  C   -0.434392
     4  C    0.021339
     5  C   -0.005629
     6  C   -0.443721
     7  C   -0.411494
     8  C    0.109627
     9  C   -0.348653
    10  C    0.081944
    11  C   -0.649542
    12  C    0.718015
    13  C   -0.608243
    14  C    0.678077
    15  H    0.239515
    16  H    0.259611
    17  H    0.251519
    18  H    0.224832
    19  H    0.189978
    20  H    0.219408
    21  H    0.246160
    22  H    0.252836
    23  H    0.235692
    24  H    0.249725
    25  H    0.249725
 Sum of Mulliken charges =   1.00000

 Dipole moment (field-independent basis, Debye):
    X=             -0.2326    Y=             -0.8256    Z=             -0.0000  Tot=              0.8577
 Quadrupole moment (field-independent basis, Debye-Ang):
   XX=            -51.0796   YY=            -36.2265   ZZ=            -84.1363
   XY=             10.2205   XZ=              0.0000   YZ=             -0.0000

 Normal termination of Gaussian 16 at Tue Aug  2 13:16:52 2022.
