 Gaussian 16, Revision C.01,
 Gaussian 16:  ES64L-G16RevC.01  3-Jul-2019

 ---------------------------------------------------------------
 #n M062X/6-311++G(d,p) TD(NStates=1) EmpiricalDispersion=GD3 SP
 ---------------------------------------------------------------

 -------
 SP_-100
 -------
 Symbolic Z-matrix:
 Charge =  1 Multiplicity = 1

                         Standard orientation:
 ---------------------------------------------------------------------
 Center     Atomic      Atomic             Coordinates (Angstroms)
 Number     Number       Type             X           Y           Z
 ---------------------------------------------------------------------
      1          6           0       -2.365773   -1.547560    0.000000
      2          6           0       -2.318024   -2.940184    0.000000
      3          6           0       -1.087935   -3.588566    0.000000
      4          6           0        0.086021   -2.853908    0.000000
      5          6           0        2.383900    1.503560    0.000000
      6          6           0        2.350428    2.926422    0.000000
      7          6           0        1.145990    3.600235    0.000000
      8          6           0       -0.024745    2.849704    0.000000
      9          6           0       -1.275295    0.687994    0.000000
     10          6           0        1.249896   -0.693089    0.000000
     11          6           0       -1.199039   -0.796032    0.000000
     12          6           0        0.060134   -1.445956    0.000000
     13          6           0        0.000000    1.424916    0.000000
     14          6           0        1.220954    0.740843    0.000000
     15          1           0       -3.324110   -1.042864    0.000000
     16          1           0       -3.235124   -3.511219    0.000000
     17          1           0       -1.044705   -4.668642    0.000000
     18          1           0        1.043182   -3.359110    0.000000
     19          1           0        2.205287   -1.199275    0.000000
     20          1           0        3.345918    1.006422    0.000000
     21          1           0        3.285991    3.468717    0.000000
     22          1           0        1.109661    4.679018    0.000000
     23          1           0       -0.987950    3.345889    0.000000
     24          1           0       -1.878613    1.035396    0.858500
     25          1           0       -1.878613    1.035396   -0.858500
 ---------------------------------------------------------------------

 SCF Done:  E(RM062X) =  -539.758400611     A.U. after   15 cycles

 Excitation energies and oscillator strengths:

 Excited State   1:      Singlet-A'     2.7709 eV  447.46 nm  f=0.0250  <S**2>=0.000
      47 -> 48         0.70381
 This state for optimization and/or second-order correction.
 Total Energy, E(TD-HF/TD-DFT) =  -539.656573618
 Copying the excited state density for this state as the 1-particle RhoCI density.

 The electronic state is 1-A'.
 Alpha  occ. eigenvalues --  -10.77635 -10.73498 -10.72923 -10.72649 -10.72183
 Alpha  occ. eigenvalues --  -10.71634 -10.71533 -10.71085 -10.70967 -10.70505
 Alpha  occ. eigenvalues --  -10.70101 -10.69841 -10.69787 -10.69458  -1.16496
 Alpha  occ. eigenvalues --   -1.12486  -1.06942  -1.05805  -1.01307  -1.00281
 Alpha  occ. eigenvalues --   -0.95716  -0.91059  -0.86429  -0.85908  -0.83815
 Alpha  occ. eigenvalues --   -0.78385  -0.76083  -0.74406  -0.69618  -0.69273
 Alpha  occ. eigenvalues --   -0.68453  -0.68165  -0.68090  -0.64925  -0.64271
 Alpha  occ. eigenvalues --   -0.62987  -0.61797  -0.60168  -0.59504  -0.59107
 Alpha  occ. eigenvalues --   -0.56924  -0.55237  -0.54762  -0.52436  -0.46849
 Alpha  occ. eigenvalues --   -0.46087  -0.44258
 Alpha virt. eigenvalues --   -0.26083  -0.14671  -0.14090  -0.12769  -0.11183
 Alpha virt. eigenvalues --   -0.10092  -0.09238  -0.07977  -0.07952  -0.07479
 Alpha virt. eigenvalues --   -0.07209  -0.07145  -0.05642  -0.05581  -0.05340

 Mulliken charges:
               1
     1  C    0.081483
     2  C   -0.403891
     3  C   -0.436940
     4  C    0.030435
     5  C    0.010500
     6  C   -0.442333
     7  C   -0.410474
     8  C    0.105765
     9  C   -0.325772
    10  C    0.096612
    11  C   -0.649540
    12  C    0.690795
    13  C   -0.626808
    14  C    0.659998
    15  H    0.238409
    16  H    0.258646
    17  H    0.250762
    18  H    0.223899
    19  H    0.190036
    20  H    0.220122
    21  H    0.247173
    22  H    0.254139
    23  H    0.235835
    24  H    0.250573
    25  H    0.250573
 Sum of Mulliken charges =   1.00000

 Dipole moment (field-independent basis, Debye):
    X=             -0.1040    Y=             -0.5783    Z=             -0.0000  Tot=              0.5876
 Quadrupole moment (field-independent basis, Debye-Ang):
   XX=            -50.9364   YY=            -36.4347   ZZ=            -84.1382
   XY=             10.2776   XZ=              0.0000   YZ=             -0.0000

 Normal termination of Gaussian 16 at Wed Jul 27 10:12:59 2022.
