 Gaussian 16, Revision C.01,
 Gaussian 16:  ES64L-G16RevC.01  3-Jul-2019

 ---------------------------------------------------------------
 #n M062X/6-311++G(d,p) TD(NStates=1) EmpiricalDispersion=GD3 SP
 ---------------------------------------------------------------

 ------
 SP_100
 ------
 Symbolic Z-matrix:
 Charge =  1 Multiplicity = 1

                         Standard orientation:
 ---------------------------------------------------------------------
 Center     Atomic      Atomic             Coordinates (Angstroms)
 Number     Number       Type             X           Y           Z
 ---------------------------------------------------------------------
      1          6           0        2.462832    1.464080    0.000000
      2          6           0        2.512129    2.851494    0.000000
      3          6           0        1.311385    3.520032    0.000000
      4          6           0        0.058731    2.794998    0.000000
      5          6           0       -2.509941   -1.408872    0.000000
      6          6           0       -2.525471   -2.769777    0.000000
      7          6           0       -1.322093   -3.480735    0.000000
      8          6           0       -0.098284   -2.812066    0.000000
      9          6           0        1.255239   -0.730720    0.000000
     10          6           0       -1.254312    0.687191    0.000000
     11          6           0        1.210261    0.735295    0.000000
     12          6           0        0.000000    1.415865    0.000000
     13          6           0       -0.058338   -1.447147    0.000000
     14          6           0       -1.277592   -0.704136    0.000000
     15          1           0        3.378708    0.884485    0.000000
     16          1           0        3.453780    3.377861    0.000000
     17          1           0        1.274857    4.601382    0.000000
     18          1           0       -0.858267    3.371798    0.000000
     19          1           0       -2.179307    1.246864    0.000000
     20          1           0       -3.430500   -0.840198    0.000000
     21          1           0       -3.464325   -3.305576    0.000000
     22          1           0       -1.337397   -4.561552    0.000000
     23          1           0        0.821821   -3.383296    0.000000
     24          1           0        1.876680   -1.042395    0.859325
     25          1           0        1.876680   -1.042395   -0.859325
 ---------------------------------------------------------------------

 SCF Done:  E(RM062X) =  -539.751388178     A.U. after   16 cycles

 Excitation energies and oscillator strengths:

 Excited State   1:      Singlet-A'     2.6220 eV  472.86 nm  f=0.0184  <S**2>=0.000
      47 -> 48         0.70345
 This state for optimization and/or second-order correction.
 Total Energy, E(TD-HF/TD-DFT) =  -539.655030837
 Copying the excited state density for this state as the 1-particle RhoCI density.

 The electronic state is 1-A'.
 Alpha  occ. eigenvalues --  -10.77547 -10.73860 -10.72897 -10.72573 -10.72210
 Alpha  occ. eigenvalues --  -10.71941 -10.71856 -10.70983 -10.70719 -10.70264
 Alpha  occ. eigenvalues --  -10.69990 -10.69910 -10.69680 -10.69259  -1.16589
 Alpha  occ. eigenvalues --   -1.12482  -1.06935  -1.05915  -1.01277  -1.00502
 Alpha  occ. eigenvalues --   -0.95497  -0.91021  -0.86452  -0.85891  -0.83768
 Alpha  occ. eigenvalues --   -0.78310  -0.76187  -0.74353  -0.69847  -0.69344
 Alpha  occ. eigenvalues --   -0.68254  -0.68083  -0.68033  -0.65401  -0.64232
 Alpha  occ. eigenvalues --   -0.62685  -0.61498  -0.60548  -0.59180  -0.59166
 Alpha  occ. eigenvalues --   -0.56961  -0.55268  -0.54466  -0.52440  -0.47497
 Alpha  occ. eigenvalues --   -0.46133  -0.43605
 Alpha virt. eigenvalues --   -0.26107  -0.14667  -0.14068  -0.12755  -0.11196
 Alpha virt. eigenvalues --   -0.10098  -0.09269  -0.07953  -0.07909  -0.07488
 Alpha virt. eigenvalues --   -0.07217  -0.07132  -0.05647  -0.05572  -0.05361

 Mulliken charges:
               1
     1  C    0.121621
     2  C   -0.415069
     3  C   -0.444446
     4  C   -0.007144
     5  C    0.034462
     6  C   -0.431342
     7  C   -0.400342
     8  C    0.069399
     9  C   -0.341722
    10  C    0.082725
    11  C   -0.597852
    12  C    0.652887
    13  C   -0.658161
    14  C    0.714994
    15  H    0.234663
    16  H    0.251284
    17  H    0.244918
    18  H    0.218073
    19  H    0.189151
    20  H    0.226258
    21  H    0.252939
    22  H    0.261358
    23  H    0.240314
    24  H    0.250517
    25  H    0.250517
 Sum of Mulliken charges =   1.00000

 Dipole moment (field-independent basis, Debye):
    X=             -0.7846    Y=             -0.9894    Z=             -0.0000  Tot=              1.2628
 Quadrupole moment (field-independent basis, Debye-Ang):
   XX=            -49.0526   YY=            -38.2049   ZZ=            -84.1274
   XY=             11.4513   XZ=             -0.0000   YZ=              0.0000

 Normal termination of Gaussian 16 at Wed Jul 27 12:14:31 2022.
