 Gaussian 16, Revision C.01,
 Gaussian 16:  ES64L-G16RevC.01  3-Jul-2019

 ---------------------------------------------------------------
 #n M062X/6-311++G(d,p) TD(NStates=1) EmpiricalDispersion=GD3 SP
 ---------------------------------------------------------------

 ------
 SP_-50
 ------
 Symbolic Z-matrix:
 Charge =  1 Multiplicity = 1

                         Standard orientation:
 ---------------------------------------------------------------------
 Center     Atomic      Atomic             Coordinates (Angstroms)
 Number     Number       Type             X           Y           Z
 ---------------------------------------------------------------------
      1          6           0        0.025040    2.845800    0.000000
      2          6           0       -1.148212    3.594348    0.000000
      3          6           0       -2.354331    2.921934    0.000000
      4          6           0       -2.388921    1.503937    0.000000
      5          6           0       -0.083311   -2.849260    0.000000
      6          6           0        1.094740   -3.586352    0.000000
      7          6           0        2.323925   -2.940143    0.000000
      8          6           0        2.368283   -1.547054    0.000000
      9          6           0        1.272710    0.685813    0.000000
     10          6           0       -1.252071   -0.688648    0.000000
     11          6           0        0.000000    1.426576    0.000000
     12          6           0       -1.223418    0.742078    0.000000
     13          6           0        1.197488   -0.794930    0.000000
     14          6           0       -0.059886   -1.443958    0.000000
     15          1           0        0.986802    3.344719    0.000000
     16          1           0       -1.112174    4.673279    0.000000
     17          1           0       -3.288352    3.466868    0.000000
     18          1           0       -3.349649    1.004407    0.000000
     19          1           0       -2.206864   -1.196119    0.000000
     20          1           0       -1.039004   -3.357437    0.000000
     21          1           0        1.049003   -4.666433    0.000000
     22          1           0        3.241451   -3.510305    0.000000
     23          1           0        3.325024   -1.039196    0.000000
     24          1           0        1.880775    1.029689    0.857675
     25          1           0        1.880775    1.029689   -0.857675
 ---------------------------------------------------------------------

 SCF Done:  E(RM062X) =  -539.759084109     A.U. after   15 cycles

 Excitation energies and oscillator strengths:

 Excited State   1:      Singlet-A'     2.7920 eV  444.07 nm  f=0.0266  <S**2>=0.000
      47 -> 48         0.70395
 This state for optimization and/or second-order correction.
 Total Energy, E(TD-HF/TD-DFT) =  -539.656480928
 Copying the excited state density for this state as the 1-particle RhoCI density.

 The electronic state is 1-A'.
 Alpha  occ. eigenvalues --  -10.77639 -10.73408 -10.72977 -10.72589 -10.72239
 Alpha  occ. eigenvalues --  -10.71567 -10.71403 -10.71154 -10.70957 -10.70631
 Alpha  occ. eigenvalues --  -10.70068 -10.69873 -10.69741 -10.69494  -1.16503
 Alpha  occ. eigenvalues --   -1.12497  -1.06943  -1.05821  -1.01311  -1.00275
 Alpha  occ. eigenvalues --   -0.95740  -0.91070  -0.86428  -0.85916  -0.83825
 Alpha  occ. eigenvalues --   -0.78396  -0.76087  -0.74415  -0.69581  -0.69268
 Alpha  occ. eigenvalues --   -0.68485  -0.68189  -0.68086  -0.64858  -0.64287
 Alpha  occ. eigenvalues --   -0.63060  -0.61832  -0.60087  -0.59569  -0.59093
 Alpha  occ. eigenvalues --   -0.56928  -0.55224  -0.54812  -0.52433  -0.46772
 Alpha  occ. eigenvalues --   -0.46076  -0.44342
 Alpha virt. eigenvalues --   -0.26074  -0.14673  -0.14092  -0.12769  -0.11183
 Alpha virt. eigenvalues --   -0.10093  -0.09234  -0.07979  -0.07954  -0.07478
 Alpha virt. eigenvalues --   -0.07210  -0.07147  -0.05641  -0.05583  -0.05339

 Mulliken charges:
               1
     1  C    0.102623
     2  C   -0.409573
     3  C   -0.441740
     4  C    0.017963
     5  C    0.033509
     6  C   -0.437961
     7  C   -0.404427
     8  C    0.083987
     9  C   -0.316953
    10  C    0.101642
    11  C   -0.632649
    12  C    0.653327
    13  C   -0.648080
    14  C    0.677707
    15  H    0.235957
    16  H    0.254769
    17  H    0.247664
    18  H    0.220548
    19  H    0.190054
    20  H    0.223431
    21  H    0.250362
    22  H    0.258144
    23  H    0.237894
    24  H    0.250901
    25  H    0.250901
 Sum of Mulliken charges =   1.00000

 Dipole moment (field-independent basis, Debye):
    X=              0.0395    Y=             -0.4546    Z=              0.0000  Tot=              0.4564
 Quadrupole moment (field-independent basis, Debye-Ang):
   XX=            -50.8636   YY=            -36.5311   ZZ=            -84.1388
   XY=            -10.3123   XZ=              0.0000   YZ=              0.0000

 Normal termination of Gaussian 16 at Wed Jul 27 10:38:53 2022.
