 Gaussian 16, Revision C.01,
 Gaussian 16:  ES64L-G16RevC.01  3-Jul-2019

 ---------------------------------------------------------------
 #n M062X/6-311++G(d,p) TD(NStates=1) EmpiricalDispersion=GD3 SP
 ---------------------------------------------------------------

 ----
 SP_0
 ----
 Symbolic Z-matrix:
 Charge =  1 Multiplicity = 1

                         Standard orientation:
 ---------------------------------------------------------------------
 Center     Atomic      Atomic             Coordinates (Angstroms)
 Number     Number       Type             X           Y           Z
 ---------------------------------------------------------------------
      1          6           0        2.495714   -1.349615    0.000000
      2          6           0        3.700587   -0.654138    0.000000
      3          6           0        3.679851    0.733085    0.000000
      4          6           0        2.461086    1.420586    0.000000
      5          6           0       -2.465298    1.394690    0.000000
      6          6           0       -3.688153    0.694960    0.000000
      7          6           0       -3.702804   -0.689741    0.000000
      8          6           0       -2.490591   -1.370920    0.000000
      9          6           0        0.004195   -1.454512    0.000000
     10          6           0        0.000000    1.429247    0.000000
     11          6           0        1.266072   -0.673462    0.000000
     12          6           0        1.236814    0.736375    0.000000
     13          6           0       -1.258195   -0.680574    0.000000
     14          6           0       -1.237960    0.725052    0.000000
     15          1           0        2.498257   -2.432764    0.000000
     16          1           0        4.638217   -1.190006    0.000000
     17          1           0        4.604636    1.292547    0.000000
     18          1           0        2.458521    2.503010    0.000000
     19          1           0       -0.005159    2.510310    0.000000
     20          1           0       -2.476264    2.477203    0.000000
     21          1           0       -4.614029    1.252829    0.000000
     22          1           0       -4.635858   -1.233064    0.000000
     23          1           0       -2.478998   -2.454105    0.000000
     24          1           0        0.001391   -2.146080    0.859875
     25          1           0        0.001391   -2.146080   -0.859875
 ---------------------------------------------------------------------

 SCF Done:  E(RM062X) =  -539.760133529     A.U. after   15 cycles

 Excitation energies and oscillator strengths:

 Excited State   1:      Singlet-A'     2.8192 eV  439.79 nm  f=0.0283  <S**2>=0.000
      47 -> 48         0.70422
 This state for optimization and/or second-order correction.
 Total Energy, E(TD-HF/TD-DFT) =  -539.656530549
 Copying the excited state density for this state as the 1-particle RhoCI density.

 The electronic state is 1-A'.
 Alpha  occ. eigenvalues --  -10.77668 -10.73319 -10.73174 -10.72496 -10.72379
 Alpha  occ. eigenvalues --  -10.71438 -10.71301 -10.71132 -10.70984 -10.70875
 Alpha  occ. eigenvalues --  -10.70005 -10.69939 -10.69673 -10.69591  -1.16437
 Alpha  occ. eigenvalues --   -1.12462  -1.06945  -1.05720  -1.01313  -1.00181
 Alpha  occ. eigenvalues --   -0.95778  -0.91053  -0.86418  -0.85898  -0.83815
 Alpha  occ. eigenvalues --   -0.78396  -0.76023  -0.74417  -0.69568  -0.69245
 Alpha  occ. eigenvalues --   -0.68498  -0.68189  -0.68103  -0.64750  -0.64280
 Alpha  occ. eigenvalues --   -0.63046  -0.61862  -0.60027  -0.59661  -0.59094
 Alpha  occ. eigenvalues --   -0.56895  -0.55219  -0.54826  -0.52439  -0.46635
 Alpha  occ. eigenvalues --   -0.46060  -0.44489
 Alpha virt. eigenvalues --   -0.26091  -0.14669  -0.14096  -0.12774  -0.11179
 Alpha virt. eigenvalues --   -0.10086  -0.09231  -0.07983  -0.07970  -0.07476
 Alpha virt. eigenvalues --   -0.07203  -0.07145  -0.05643  -0.05581  -0.05332

 Mulliken charges:
               1
     1  C    0.090155
     2  C   -0.405877
     3  C   -0.439324
     4  C    0.015369
     5  C    0.010548
     6  C   -0.440799
     7  C   -0.407487
     8  C    0.095928
     9  C   -0.337117
    10  C    0.091483
    11  C   -0.638670
    12  C    0.693052
    13  C   -0.632449
    14  C    0.685838
    15  H    0.237662
    16  H    0.256862
    17  H    0.249336
    18  H    0.222467
    19  H    0.190425
    20  H    0.221540
    21  H    0.248439
    22  H    0.255729
    23  H    0.237020
    24  H    0.249934
    25  H    0.249934
 Sum of Mulliken charges =   1.00000

 Dipole moment (field-independent basis, Debye):
    X=              0.1393    Y=              0.1892    Z=              0.0000  Tot=              0.2349
 Quadrupole moment (field-independent basis, Debye-Ang):
   XX=            -31.1108   YY=            -56.2628   ZZ=            -84.1422
   XY=              0.1768   XZ=              0.0000   YZ=             -0.0000

 Normal termination of Gaussian 16 at Wed Jul 27 11:19:51 2022.
