 Gaussian 16, Revision C.01,
 Gaussian 16:  ES64L-G16RevC.01  3-Jul-2019

 ---------------------------------------------------------------
 #n M062X/6-311++G(d,p) TD(NStates=1) EmpiricalDispersion=GD3 SP
 ---------------------------------------------------------------

 -------
 SP_-125
 -------
 Symbolic Z-matrix:
 Charge =  1 Multiplicity = 1

                         Standard orientation:
 ---------------------------------------------------------------------
 Center     Atomic      Atomic             Coordinates (Angstroms)
 Number     Number       Type             X           Y           Z
 ---------------------------------------------------------------------
      1          6           0        0.019706   -2.823720    0.000000
      2          6           0        1.218315   -3.535539    0.000000
      3          6           0        2.431569   -2.853792    0.000000
      4          6           0        2.450710   -1.473838    0.000000
      5          6           0        0.024917    2.813702    0.000000
      6          6           0       -1.193197    3.559040    0.000000
      7          6           0       -2.411544    2.913777    0.000000
      8          6           0       -2.411544    1.523222    0.000000
      9          6           0       -1.268566   -0.698072    0.000000
     10          6           0        1.262035    0.670883    0.000000
     11          6           0        0.019706   -1.440842    0.000000
     12          6           0        1.250302   -0.733774    0.000000
     13          6           0       -1.196246    0.770836    0.000000
     14          6           0        0.038401    1.425365    0.000000
     15          1           0       -0.922036   -3.358717    0.000000
     16          1           0        1.202066   -4.615892    0.000000
     17          1           0        3.361454   -3.404998    0.000000
     18          1           0        3.392379   -0.940400    0.000000
     19          1           0        2.204372    1.201027    0.000000
     20          1           0        0.962443    3.355822    0.000000
     21          1           0       -1.139580    4.639221    0.000000
     22          1           0       -3.338317    3.466897    0.000000
     23          1           0       -3.348754    0.979359    0.000000
     24          1           0       -1.890701   -1.012902    0.858225
     25          1           0       -1.890701   -1.012902   -0.858225
 ---------------------------------------------------------------------

 SCF Done:  E(RM062X) =  -539.757399542     A.U. after   15 cycles

 Excitation energies and oscillator strengths:

 Excited State   1:      Singlet-A'     2.7460 eV  451.51 nm  f=0.0236  <S**2>=0.000
      47 -> 48         0.70368
 This state for optimization and/or second-order correction.
 Total Energy, E(TD-HF/TD-DFT) =  -539.656485658
 Copying the excited state density for this state as the 1-particle RhoCI density.

 The electronic state is 1-A'.
 Alpha  occ. eigenvalues --  -10.77620 -10.73561 -10.72844 -10.72698 -10.72116
 Alpha  occ. eigenvalues --  -10.71697 -10.71668 -10.71011 -10.70964 -10.70383
 Alpha  occ. eigenvalues --  -10.70133 -10.69826 -10.69809 -10.69415  -1.16518
 Alpha  occ. eigenvalues --   -1.12491  -1.06941  -1.05835  -1.01303  -1.00325
 Alpha  occ. eigenvalues --   -0.95682  -0.91058  -0.86433  -0.85909  -0.83811
 Alpha  occ. eigenvalues --   -0.78376  -0.76107  -0.74399  -0.69651  -0.69286
 Alpha  occ. eigenvalues --   -0.68425  -0.68148  -0.68087  -0.65012  -0.64265
 Alpha  occ. eigenvalues --   -0.62941  -0.61758  -0.60236  -0.59436  -0.59117
 Alpha  occ. eigenvalues --   -0.56935  -0.55246  -0.54719  -0.52435  -0.46959
 Alpha  occ. eigenvalues --   -0.46096  -0.44144
 Alpha virt. eigenvalues --   -0.26083  -0.14672  -0.14087  -0.12766  -0.11185
 Alpha virt. eigenvalues --   -0.10094  -0.09242  -0.07973  -0.07944  -0.07480
 Alpha virt. eigenvalues --   -0.07211  -0.07143  -0.05643  -0.05580  -0.05343

 Mulliken charges:
               1
     1  C    0.079011
     2  C   -0.402957
     3  C   -0.436199
     4  C    0.034441
     5  C    0.009214
     6  C   -0.442742
     7  C   -0.411404
     8  C    0.109251
     9  C   -0.324423
    10  C    0.096724
    11  C   -0.652215
    12  C    0.691757
    13  C   -0.623539
    14  C    0.652711
    15  H    0.238695
    16  H    0.259223
    17  H    0.251218
    18  H    0.224390
    19  H    0.189864
    20  H    0.219667
    21  H    0.246742
    22  H    0.253594
    23  H    0.235496
    24  H    0.250740
    25  H    0.250740
 Sum of Mulliken charges =   1.00000

 Dipole moment (field-independent basis, Debye):
    X=              0.4951    Y=             -0.5234    Z=              0.0000  Tot=              0.7204
 Quadrupole moment (field-independent basis, Debye-Ang):
   XX=            -49.9703   YY=            -37.3910   ZZ=            -84.1364
   XY=            -10.9011   XZ=             -0.0000   YZ=             -0.0000

 Normal termination of Gaussian 16 at Wed Jul 27 09:56:23 2022.
