 Gaussian 16, Revision C.01,
 Gaussian 16:  ES64L-G16RevC.01  3-Jul-2019

 ---------------------------------------------------------------
 #n M062X/6-311++G(d,p) TD(NStates=1) EmpiricalDispersion=GD3 SP
 ---------------------------------------------------------------

 ------
 SP_-25
 ------
 Symbolic Z-matrix:
 Charge =  1 Multiplicity = 1

                         Standard orientation:
 ---------------------------------------------------------------------
 Center     Atomic      Atomic             Coordinates (Angstroms)
 Number     Number       Type             X           Y           Z
 ---------------------------------------------------------------------
      1          6           0       -2.371625   -1.551550    0.000000
      2          6           0       -2.330019   -2.942707    0.000000
      3          6           0       -1.099854   -3.586674    0.000000
      4          6           0        0.081084   -2.845048    0.000000
      5          6           0        2.394429    1.504427    0.000000
      6          6           0        2.360994    2.917722    0.000000
      7          6           0        1.152134    3.590214    0.000000
      8          6           0       -0.021923    2.845394    0.000000
      9          6           0       -1.279968    0.688562    0.000000
     10          6           0        1.254735   -0.684369    0.000000
     11          6           0       -1.196177   -0.794151    0.000000
     12          6           0        0.059530   -1.440709    0.000000
     13          6           0        0.000000    1.428641    0.000000
     14          6           0        1.224718    0.742858    0.000000
     15          1           0       -3.327034   -1.041302    0.000000
     16          1           0       -3.247295   -3.512955    0.000000
     17          1           0       -1.050650   -4.666394    0.000000
     18          1           0        1.035691   -3.355207    0.000000
     19          1           0        2.208735   -1.192957    0.000000
     20          1           0        3.353309    1.001736    0.000000
     21          1           0        3.293649    3.464391    0.000000
     22          1           0        1.117451    4.669263    0.000000
     23          1           0       -0.981800    3.347598    0.000000
     24          1           0       -1.885201    1.025081    0.859600
     25          1           0       -1.885201    1.025081   -0.859600
 ---------------------------------------------------------------------

 SCF Done:  E(RM062X) =  -539.759774418     A.U. after   15 cycles

 Excitation energies and oscillator strengths:

 Excited State   1:      Singlet-A'     2.8085 eV  441.45 nm  f=0.0275  <S**2>=0.000
      47 -> 48         0.70410
 This state for optimization and/or second-order correction.
 Total Energy, E(TD-HF/TD-DFT) =  -539.656562439
 Copying the excited state density for this state as the 1-particle RhoCI density.

 The electronic state is 1-A'.
 Alpha  occ. eigenvalues --  -10.77662 -10.73384 -10.73095 -10.72550 -10.72316
 Alpha  occ. eigenvalues --  -10.71505 -10.71264 -10.71230 -10.70980 -10.70749
 Alpha  occ. eigenvalues --  -10.70037 -10.69906 -10.69712 -10.69548  -1.16449
 Alpha  occ. eigenvalues --   -1.12467  -1.06945  -1.05737  -1.01312  -1.00201
 Alpha  occ. eigenvalues --   -0.95766  -0.91054  -0.86421  -0.85900  -0.83815
 Alpha  occ. eigenvalues --   -0.78394  -0.76035  -0.74415  -0.69578  -0.69250
 Alpha  occ. eigenvalues --   -0.68488  -0.68184  -0.68100  -0.64788  -0.64276
 Alpha  occ. eigenvalues --   -0.63033  -0.61848  -0.60063  -0.59621  -0.59096
 Alpha  occ. eigenvalues --   -0.56901  -0.55223  -0.54813  -0.52438  -0.46680
 Alpha  occ. eigenvalues --   -0.46068  -0.44439
 Alpha virt. eigenvalues --   -0.26090  -0.14669  -0.14095  -0.12773  -0.11179
 Alpha virt. eigenvalues --   -0.10087  -0.09232  -0.07981  -0.07967  -0.07476
 Alpha virt. eigenvalues --   -0.07203  -0.07144  -0.05643  -0.05581  -0.05334

 Mulliken charges:
               1
     1  C    0.086930
     2  C   -0.405312
     3  C   -0.438463
     4  C    0.019244
     5  C    0.009699
     6  C   -0.441357
     7  C   -0.408509
     8  C    0.098775
     9  C   -0.334823
    10  C    0.092536
    11  C   -0.642726
    12  C    0.694883
    13  C   -0.630590
    14  C    0.680229
    15  H    0.237949
    16  H    0.257445
    17  H    0.249805
    18  H    0.222935
    19  H    0.190344
    20  H    0.221074
    21  H    0.248008
    22  H    0.255184
    23  H    0.236657
    24  H    0.250041
    25  H    0.250041
 Sum of Mulliken charges =   1.00000

 Dipole moment (field-independent basis, Debye):
    X=              0.0328    Y=             -0.3352    Z=             -0.0000  Tot=              0.3368
 Quadrupole moment (field-independent basis, Debye-Ang):
   XX=            -50.7909   YY=            -36.5823   ZZ=            -84.1413
   XY=             10.3790   XZ=              0.0000   YZ=              0.0000

 Normal termination of Gaussian 16 at Wed Jul 27 11:04:36 2022.
