 Gaussian 16, Revision C.01,
 Gaussian 16:  ES64L-G16RevC.01  3-Jul-2019

 ---------------------------------------------------------------
 #n M062X/6-311++G(d,p) TD(NStates=1) EmpiricalDispersion=GD3 SP
 ---------------------------------------------------------------

 -----
 SP_25
 -----
 Symbolic Z-matrix:
 Charge =  1 Multiplicity = 1

                         Standard orientation:
 ---------------------------------------------------------------------
 Center     Atomic      Atomic             Coordinates (Angstroms)
 Number     Number       Type             X           Y           Z
 ---------------------------------------------------------------------
      1          6           0        0.026234    2.855402    0.000000
      2          6           0       -1.140480    3.610940    0.000000
      3          6           0       -2.340930    2.935204    0.000000
      4          6           0       -2.373565    1.502705    0.000000
      5          6           0       -0.091180   -2.862947    0.000000
      6          6           0        1.075331   -3.591459    0.000000
      7          6           0        2.306117   -2.938694    0.000000
      8          6           0        2.360270   -1.545577    0.000000
      9          6           0        1.274463    0.689598    0.000000
     10          6           0       -1.245278   -0.701898    0.000000
     11          6           0        0.000000    1.421342    0.000000
     12          6           0       -1.216725    0.738624    0.000000
     13          6           0        1.202000   -0.798071    0.000000
     14          6           0       -0.060707   -1.450718    0.000000
     15          1           0        0.992576    3.345777    0.000000
     16          1           0       -1.102927    4.689443    0.000000
     17          1           0       -3.279486    3.472776    0.000000
     18          1           0       -3.338484    1.010820    0.000000
     19          1           0       -2.201978   -1.205611    0.000000
     20          1           0       -1.051036   -3.362787    0.000000
     21          1           0        1.037687   -4.671765    0.000000
     22          1           0        3.222766   -3.510904    0.000000
     23          1           0        3.321626   -1.046754    0.000000
     24          1           0        1.872978    1.046152    0.858500
     25          1           0        1.872978    1.046152   -0.858500
 ---------------------------------------------------------------------

 SCF Done:  E(RM062X) =  -539.756221840     A.U. after   15 cycles

 Excitation energies and oscillator strengths:

 Excited State   1:      Singlet-A'     2.7180 eV  456.17 nm  f=0.0221  <S**2>=0.000
      47 -> 48         0.70359
 This state for optimization and/or second-order correction.
 Total Energy, E(TD-HF/TD-DFT) =  -539.656338959
 Copying the excited state density for this state as the 1-particle RhoCI density.

 The electronic state is 1-A'.
 Alpha  occ. eigenvalues --  -10.77606 -10.73637 -10.72776 -10.72751 -10.72053
 Alpha  occ. eigenvalues --  -10.71802 -10.71760 -10.70969 -10.70939 -10.70262
 Alpha  occ. eigenvalues --  -10.70166 -10.69867 -10.69777 -10.69376  -1.16530
 Alpha  occ. eigenvalues --   -1.12489  -1.06940  -1.05848  -1.01298  -1.00361
 Alpha  occ. eigenvalues --   -0.95643  -0.91051  -0.86437  -0.85905  -0.83802
 Alpha  occ. eigenvalues --   -0.78363  -0.76122  -0.74389  -0.69695  -0.69298
 Alpha  occ. eigenvalues --   -0.68388  -0.68122  -0.68086  -0.65102  -0.64256
 Alpha  occ. eigenvalues --   -0.62875  -0.61707  -0.60313  -0.59368  -0.59131
 Alpha  occ. eigenvalues --   -0.56940  -0.55256  -0.54661  -0.52436  -0.47078
 Alpha  occ. eigenvalues --   -0.46106  -0.44023
 Alpha virt. eigenvalues --   -0.26088  -0.14671  -0.14083  -0.12764  -0.11188
 Alpha virt. eigenvalues --   -0.10094  -0.09248  -0.07969  -0.07937  -0.07482
 Alpha virt. eigenvalues --   -0.07212  -0.07142  -0.05644  -0.05579  -0.05347

 Mulliken charges:
               1
     1  C    0.112302
     2  C   -0.412388
     3  C   -0.443202
     4  C    0.004998
     5  C    0.034612
     6  C   -0.435037
     7  C   -0.402434
     8  C    0.076245
     9  C   -0.328295
    10  C    0.093826
    11  C   -0.618537
    12  C    0.653072
    13  C   -0.653653
    14  C    0.698237
    15  H    0.235274
    16  H    0.253015
    17  H    0.246282
    18  H    0.219239
    19  H    0.189727
    20  H    0.224866
    21  H    0.251656
    22  H    0.259760
    23  H    0.239103
    24  H    0.250666
    25  H    0.250666
 Sum of Mulliken charges =   1.00000

 Dipole moment (field-independent basis, Debye):
    X=              0.2383    Y=             -0.8218    Z=              0.0000  Tot=              0.8556
 Quadrupole moment (field-independent basis, Debye-Ang):
   XX=            -51.0801   YY=            -36.2598   ZZ=            -84.1347
   XY=            -10.1946   XZ=              0.0000   YZ=              0.0000

 Normal termination of Gaussian 16 at Wed Jul 27 11:26:55 2022.
