 Gaussian 16, Revision C.01,
 Gaussian 16:  ES64L-G16RevC.01  3-Jul-2019

 ---------------------------------------------------------------
 #n M062X/6-311++G(d,p) TD(NStates=1) EmpiricalDispersion=GD3 SP
 ---------------------------------------------------------------

 -------
 SP_-125
 -------
 Symbolic Z-matrix:
 Charge =  1 Multiplicity = 1

                         Standard orientation:
 ---------------------------------------------------------------------
 Center     Atomic      Atomic             Coordinates (Angstroms)
 Number     Number       Type             X           Y           Z
 ---------------------------------------------------------------------
      1          6           0        2.490957   -1.351143    0.000000
      2          6           0        3.698205   -0.655036    0.000000
      3          6           0        3.678357    0.730566    0.000000
      4          6           0        2.460836    1.420077    0.000000
      5          6           0       -2.465049    1.394204    0.000000
      6          6           0       -3.686647    0.692484    0.000000
      7          6           0       -3.700436   -0.690588    0.000000
      8          6           0       -2.485848   -1.372387    0.000000
      9          6           0        0.004258   -1.443509    0.000000
     10          6           0        0.000000    1.428750    0.000000
     11          6           0        1.265686   -0.673341    0.000000
     12          6           0        1.237805    0.737127    0.000000
     13          6           0       -1.257832   -0.680440    0.000000
     14          6           0       -1.238969    0.725805    0.000000
     15          1           0        2.492746   -2.434421    0.000000
     16          1           0        4.635338   -1.191909    0.000000
     17          1           0        4.603896    1.289403    0.000000
     18          1           0        2.459274    2.502631    0.000000
     19          1           0       -0.005156    2.510063    0.000000
     20          1           0       -2.477010    2.476837    0.000000
     21          1           0       -4.613268    1.249728    0.000000
     22          1           0       -4.632988   -1.234905    0.000000
     23          1           0       -2.473508   -2.455694    0.000000
     24          1           0        0.001364   -2.143578    0.857125
     25          1           0        0.001364   -2.143578   -0.857125
 ---------------------------------------------------------------------

 SCF Done:  E(RM062X) =  -539.759917487     A.U. after   15 cycles

 Excitation energies and oscillator strengths:

 Excited State   1:      Singlet-A'     2.8181 eV  439.96 nm  f=0.0289  <S**2>=0.000
      47 -> 48         0.70422
 This state for optimization and/or second-order correction.
 Total Energy, E(TD-HF/TD-DFT) =  -539.656353947
 Copying the excited state density for this state as the 1-particle RhoCI density.

 The electronic state is 1-A'.
 Alpha  occ. eigenvalues --  -10.77645 -10.73253 -10.73110 -10.72474 -10.72356
 Alpha  occ. eigenvalues --  -10.71432 -10.71294 -10.71143 -10.70950 -10.70885
 Alpha  occ. eigenvalues --  -10.70002 -10.69937 -10.69656 -10.69573  -1.16502
 Alpha  occ. eigenvalues --   -1.12504  -1.06944  -1.05824  -1.01315  -1.00256
 Alpha  occ. eigenvalues --   -0.95770  -0.91079  -0.86427  -0.85922  -0.83835
 Alpha  occ. eigenvalues --   -0.78407  -0.76083  -0.74423  -0.69539  -0.69261
 Alpha  occ. eigenvalues --   -0.68519  -0.68214  -0.68085  -0.64766  -0.64307
 Alpha  occ. eigenvalues --   -0.63141  -0.61868  -0.59959  -0.59684  -0.59078
 Alpha  occ. eigenvalues --   -0.56928  -0.55202  -0.54873  -0.52431  -0.46673
 Alpha  occ. eigenvalues --   -0.46060  -0.44452
 Alpha virt. eigenvalues --   -0.26067  -0.14675  -0.14094  -0.12769  -0.11183
 Alpha virt. eigenvalues --   -0.10094  -0.09230  -0.07983  -0.07958  -0.07478
 Alpha virt. eigenvalues --   -0.07211  -0.07150  -0.05640  -0.05585  -0.05337

 Mulliken charges:
               1
     1  C    0.089966
     2  C   -0.405752
     3  C   -0.439552
     4  C    0.032113
     5  C    0.026797
     6  C   -0.440747
     7  C   -0.407429
     8  C    0.096366
     9  C   -0.310728
    10  C    0.105244
    11  C   -0.643700
    12  C    0.661865
    13  C   -0.638696
    14  C    0.653290
    15  H    0.237098
    16  H    0.257066
    17  H    0.249488
    18  H    0.222459
    19  H    0.190126
    20  H    0.221487
    21  H    0.248591
    22  H    0.255939
    23  H    0.236449
    24  H    0.251131
    25  H    0.251131
 Sum of Mulliken charges =   1.00000

 Dipole moment (field-independent basis, Debye):
    X=              0.1391    Y=              0.1801    Z=              0.0000  Tot=              0.2276
 Quadrupole moment (field-independent basis, Debye-Ang):
   XX=            -31.1690   YY=            -56.2466   ZZ=            -84.1398
   XY=              0.1766   XZ=              0.0000   YZ=              0.0000

 Normal termination of Gaussian 16 at Wed Jul 27 09:49:52 2022.
