 Gaussian 16, Revision C.01,
 Gaussian 16:  ES64L-G16RevC.01  3-Jul-2019

 ---------------------------------------------------------------
 #n M062X/6-311++G(d,p) TD(NStates=1) EmpiricalDispersion=GD3 SP
 ---------------------------------------------------------------

 -----
 SP_25
 -----
 Symbolic Z-matrix:
 Charge =  1 Multiplicity = 1

                         Standard orientation:
 ---------------------------------------------------------------------
 Center     Atomic      Atomic             Coordinates (Angstroms)
 Number     Number       Type             X           Y           Z
 ---------------------------------------------------------------------
      1          6           0        2.490594   -1.370917    0.000000
      2          6           0        3.702806   -0.689737    0.000000
      3          6           0        3.688154    0.694965    0.000000
      4          6           0        2.465298    1.394693    0.000000
      5          6           0       -2.461086    1.420583    0.000000
      6          6           0       -3.679850    0.733081    0.000000
      7          6           0       -3.700584   -0.654142    0.000000
      8          6           0       -2.495711   -1.349618    0.000000
      9          6           0       -0.004217   -1.454511    0.000000
     10          6           0       -0.000000    1.429247    0.000000
     11          6           0        1.258198   -0.680573    0.000000
     12          6           0        1.237961    0.725053    0.000000
     13          6           0       -1.266070   -0.673463    0.000000
     14          6           0       -1.236813    0.736373    0.000000
     15          1           0        2.479002   -2.454102    0.000000
     16          1           0        4.635861   -1.233059    0.000000
     17          1           0        4.614029    1.252834    0.000000
     18          1           0        2.476263    2.477206    0.000000
     19          1           0        0.005158    2.510310    0.000000
     20          1           0       -2.458522    2.503007    0.000000
     21          1           0       -4.604635    1.292542    0.000000
     22          1           0       -4.638214   -1.190011    0.000000
     23          1           0       -2.498252   -2.432767    0.000000
     24          1           0       -0.001387   -2.146080    0.859875
     25          1           0       -0.001387   -2.146080   -0.859875
 ---------------------------------------------------------------------

 SCF Done:  E(RM062X) =  -539.760133561     A.U. after   15 cycles

 Excitation energies and oscillator strengths:

 Excited State   1:      Singlet-A'     2.8192 eV  439.79 nm  f=0.0283  <S**2>=0.000
      47 -> 48         0.70422
 This state for optimization and/or second-order correction.
 Total Energy, E(TD-HF/TD-DFT) =  -539.656530543
 Copying the excited state density for this state as the 1-particle RhoCI density.

 The electronic state is 1-A'.
 Alpha  occ. eigenvalues --  -10.77668 -10.73319 -10.73174 -10.72496 -10.72379
 Alpha  occ. eigenvalues --  -10.71438 -10.71301 -10.71132 -10.70984 -10.70875
 Alpha  occ. eigenvalues --  -10.70005 -10.69939 -10.69673 -10.69591  -1.16437
 Alpha  occ. eigenvalues --   -1.12462  -1.06945  -1.05720  -1.01313  -1.00181
 Alpha  occ. eigenvalues --   -0.95778  -0.91053  -0.86418  -0.85898  -0.83815
 Alpha  occ. eigenvalues --   -0.78396  -0.76023  -0.74417  -0.69568  -0.69245
 Alpha  occ. eigenvalues --   -0.68498  -0.68189  -0.68103  -0.64750  -0.64280
 Alpha  occ. eigenvalues --   -0.63046  -0.61862  -0.60027  -0.59661  -0.59094
 Alpha  occ. eigenvalues --   -0.56895  -0.55219  -0.54826  -0.52439  -0.46635
 Alpha  occ. eigenvalues --   -0.46060  -0.44489
 Alpha virt. eigenvalues --   -0.26091  -0.14669  -0.14096  -0.12774  -0.11179
 Alpha virt. eigenvalues --   -0.10086  -0.09231  -0.07983  -0.07970  -0.07476
 Alpha virt. eigenvalues --   -0.07203  -0.07145  -0.05643  -0.05581  -0.05332

 Mulliken charges:
               1
     1  C    0.095940
     2  C   -0.407480
     3  C   -0.440798
     4  C    0.010553
     5  C    0.015364
     6  C   -0.439324
     7  C   -0.405884
     8  C    0.090144
     9  C   -0.337117
    10  C    0.091483
    11  C   -0.632436
    12  C    0.685831
    13  C   -0.638683
    14  C    0.693060
    15  H    0.237019
    16  H    0.255729
    17  H    0.248439
    18  H    0.221540
    19  H    0.190425
    20  H    0.222467
    21  H    0.249336
    22  H    0.256862
    23  H    0.237663
    24  H    0.249934
    25  H    0.249934
 Sum of Mulliken charges =   1.00000

 Dipole moment (field-independent basis, Debye):
    X=             -0.1393    Y=              0.1892    Z=              0.0000  Tot=              0.2349
 Quadrupole moment (field-independent basis, Debye-Ang):
   XX=            -31.1108   YY=            -56.2628   ZZ=            -84.1422
   XY=             -0.1768   XZ=             -0.0000   YZ=             -0.0000

 Normal termination of Gaussian 16 at Wed Jul 27 11:34:03 2022.
