 Gaussian 16, Revision C.01,
 Gaussian 16:  ES64L-G16RevC.01  3-Jul-2019

 ---------------------------------------------------------------
 #n M062X/6-311++G(d,p) TD(NStates=1) EmpiricalDispersion=GD3 SP
 ---------------------------------------------------------------

 -----
 SP_25
 -----
 Symbolic Z-matrix:
 Charge =  1 Multiplicity = 1

                         Standard orientation:
 ---------------------------------------------------------------------
 Center     Atomic      Atomic             Coordinates (Angstroms)
 Number     Number       Type             X           Y           Z
 ---------------------------------------------------------------------
      1          6           0        1.360116    2.493652    0.000000
      2          6           0        0.671841    3.701977    0.000000
      3          6           0       -0.714284    3.684202    0.000000
      4          6           0       -1.407684    2.463252    0.000000
      5          6           0       -1.407684   -2.463248    0.000000
      6          6           0       -0.714284   -3.684198    0.000000
      7          6           0        0.671841   -3.701973    0.000000
      8          6           0        1.360116   -2.493648    0.000000
      9          6           0        1.455616   -0.000023    0.000000
     10          6           0       -1.429284    0.000002    0.000000
     11          6           0        0.677041    1.262177    0.000000
     12          6           0       -0.730634    1.237302    0.000000
     13          6           0        0.677041   -1.262173    0.000000
     14          6           0       -0.730634   -1.237298    0.000000
     15          1           0        2.443291    2.489202    0.000000
     16          1           0        1.211341    4.637377    0.000000
     17          1           0       -1.273009    4.609452    0.000000
     18          1           0       -2.490159    2.467352    0.000000
     19          1           0       -2.510334    0.000002    0.000000
     20          1           0       -2.490159   -2.467348    0.000000
     21          1           0       -1.273009   -4.609448    0.000000
     22          1           0        1.211341   -4.637373    0.000000
     23          1           0        2.443291   -2.489198    0.000000
     24          1           0        2.146316    0.000002    0.860150
     25          1           0        2.146316    0.000002   -0.860150
 ---------------------------------------------------------------------

 SCF Done:  E(RM062X) =  -539.760252000     A.U. after   15 cycles

 Excitation energies and oscillator strengths:

 Excited State   1:      Singlet-A'     2.8229 eV  439.21 nm  f=0.0286  <S**2>=0.000
      47 -> 48         0.70426
 This state for optimization and/or second-order correction.
 Total Energy, E(TD-HF/TD-DFT) =  -539.656511519
 Copying the excited state density for this state as the 1-particle RhoCI density.

 The electronic state is 1-A'.
 Alpha  occ. eigenvalues --  -10.77671 -10.73254 -10.73253 -10.72441 -10.72439
 Alpha  occ. eigenvalues --  -10.71371 -10.71370 -10.71002 -10.71002 -10.70987
 Alpha  occ. eigenvalues --  -10.69972 -10.69972 -10.69634 -10.69633  -1.16429
 Alpha  occ. eigenvalues --   -1.12457  -1.06945  -1.05708  -1.01314  -1.00169
 Alpha  occ. eigenvalues --   -0.95783  -0.91050  -0.86417  -0.85896  -0.83813
 Alpha  occ. eigenvalues --   -0.78396  -0.76015  -0.74417  -0.69566  -0.69242
 Alpha  occ. eigenvalues --   -0.68499  -0.68189  -0.68105  -0.64736  -0.64279
 Alpha  occ. eigenvalues --   -0.63044  -0.61866  -0.60017  -0.59674  -0.59094
 Alpha  occ. eigenvalues --   -0.56891  -0.55219  -0.54828  -0.52440  -0.46617
 Alpha  occ. eigenvalues --   -0.46057  -0.44509
 Alpha virt. eigenvalues --   -0.26093  -0.14668  -0.14097  -0.12775  -0.11178
 Alpha virt. eigenvalues --   -0.10085  -0.09230  -0.07983  -0.07973  -0.07475
 Alpha virt. eigenvalues --   -0.07202  -0.07144  -0.05644  -0.05581  -0.05331

 Mulliken charges:
               1
     1  C    0.092826
     2  C   -0.406571
     3  C   -0.440081
     4  C    0.011479
     5  C    0.011468
     6  C   -0.440082
     7  C   -0.406586
     8  C    0.092803
     9  C   -0.339606
    10  C    0.090130
    11  C   -0.634782
    12  C    0.692303
    13  C   -0.634808
    14  C    0.692318
    15  H    0.237389
    16  H    0.256276
    17  H    0.248873
    18  H    0.222008
    19  H    0.190471
    20  H    0.222008
    21  H    0.248872
    22  H    0.256276
    23  H    0.237390
    24  H    0.249813
    25  H    0.249813
 Sum of Mulliken charges =   1.00000

 Dipole moment (field-independent basis, Debye):
    X=             -0.1897    Y=              0.0000    Z=              0.0000  Tot=              0.1897
 Quadrupole moment (field-independent basis, Debye-Ang):
   XX=            -56.2652   YY=            -31.1059   ZZ=            -84.1426
   XY=              0.0000   XZ=              0.0000   YZ=              0.0000

 Normal termination of Gaussian 16 at Wed Jul 27 11:35:27 2022.
