 Gaussian 16, Revision C.01,
 Gaussian 16:  ES64L-G16RevC.01  3-Jul-2019

 ---------------------------------------------------------------
 #n M062X/6-311++G(d,p) TD(NStates=1) EmpiricalDispersion=GD3 SP
 ---------------------------------------------------------------

 -------
 SP_-125
 -------
 Symbolic Z-matrix:
 Charge =  1 Multiplicity = 1

                         Standard orientation:
 ---------------------------------------------------------------------
 Center     Atomic      Atomic             Coordinates (Angstroms)
 Number     Number       Type             X           Y           Z
 ---------------------------------------------------------------------
      1          6           0       -1.361913   -2.487942    0.000000
      2          6           0       -0.672888   -3.699117    0.000000
      3          6           0        0.711287   -3.682392    0.000000
      4          6           0        1.407087   -2.462942    0.000000
      5          6           0        1.407087    2.462958    0.000000
      6          6           0        0.711287    3.682408    0.000000
      7          6           0       -0.672888    3.699133    0.000000
      8          6           0       -1.361913    2.487958    0.000000
      9          6           0       -1.442413   -0.000117    0.000000
     10          6           0        1.428687    0.000008    0.000000
     11          6           0       -0.676888   -1.261717    0.000000
     12          6           0        0.731537   -1.238492    0.000000
     13          6           0       -0.676888    1.261733    0.000000
     14          6           0        0.731537    1.238508    0.000000
     15          1           0       -2.445238   -2.482592    0.000000
     16          1           0       -1.213588   -4.633917    0.000000
     17          1           0        1.269262   -4.608542    0.000000
     18          1           0        2.489712   -2.468242    0.000000
     19          1           0        2.510037    0.000008    0.000000
     20          1           0        2.489712    2.468258    0.000000
     21          1           0        1.269262    4.608558    0.000000
     22          1           0       -1.213588    4.633933    0.000000
     23          1           0       -2.445238    2.482608    0.000000
     24          1           0       -2.143313    0.000008    0.856850
     25          1           0       -2.143313    0.000008   -0.856850
 ---------------------------------------------------------------------

 SCF Done:  E(RM062X) =  -539.759993572     A.U. after   15 cycles

 Excitation energies and oscillator strengths:

 Excited State   1:      Singlet-A'     2.8214 eV  439.44 nm  f=0.0292  <S**2>=0.000
      47 -> 48         0.70426
 This state for optimization and/or second-order correction.
 Total Energy, E(TD-HF/TD-DFT) =  -539.656307596
 Copying the excited state density for this state as the 1-particle RhoCI density.

 The electronic state is 1-A'.
 Alpha  occ. eigenvalues --  -10.77644 -10.73176 -10.73174 -10.72414 -10.72413
 Alpha  occ. eigenvalues --  -10.71362 -10.71362 -10.71014 -10.71014 -10.70947
 Alpha  occ. eigenvalues --  -10.69970 -10.69969 -10.69613 -10.69613  -1.16507
 Alpha  occ. eigenvalues --   -1.12508  -1.06945  -1.05832  -1.01315  -1.00259
 Alpha  occ. eigenvalues --   -0.95773  -0.91082  -0.86427  -0.85924  -0.83838
 Alpha  occ. eigenvalues --   -0.78409  -0.76087  -0.74425  -0.69531  -0.69261
 Alpha  occ. eigenvalues --   -0.68525  -0.68219  -0.68083  -0.64754  -0.64313
 Alpha  occ. eigenvalues --   -0.63159  -0.61873  -0.59930  -0.59709  -0.59075
 Alpha  occ. eigenvalues --   -0.56930  -0.55197  -0.54884  -0.52430  -0.46663
 Alpha  occ. eigenvalues --   -0.46057  -0.44464
 Alpha virt. eigenvalues --   -0.26064  -0.14676  -0.14094  -0.12769  -0.11183
 Alpha virt. eigenvalues --   -0.10094  -0.09230  -0.07984  -0.07957  -0.07478
 Alpha virt. eigenvalues --   -0.07212  -0.07150  -0.05640  -0.05585  -0.05337

 Mulliken charges:
               1
     1  C    0.092880
     2  C   -0.406489
     3  C   -0.440187
     4  C    0.031244
     5  C    0.031300
     6  C   -0.440184
     7  C   -0.406410
     8  C    0.092992
     9  C   -0.307976
    10  C    0.106592
    11  C   -0.641586
    12  C    0.654100
    13  C   -0.641430
    14  C    0.654025
    15  H    0.236710
    16  H    0.256525
    17  H    0.249054
    18  H    0.221972
    19  H    0.190113
    20  H    0.221973
    21  H    0.249055
    22  H    0.256524
    23  H    0.236707
    24  H    0.251249
    25  H    0.251249
 Sum of Mulliken charges =   1.00000

 Dipole moment (field-independent basis, Debye):
    X=              0.1788    Y=              0.0000    Z=              0.0000  Tot=              0.1788
 Quadrupole moment (field-independent basis, Debye-Ang):
   XX=            -56.2458   YY=            -31.1758   ZZ=            -84.1398
   XY=             -0.0001   XZ=              0.0000   YZ=             -0.0000

 Normal termination of Gaussian 16 at Wed Jul 27 09:48:19 2022.
