 Gaussian 16, Revision C.01,
 Gaussian 16:  ES64L-G16RevC.01  3-Jul-2019

 ---------------------------------------------------------------
 #n M062X/6-311++G(d,p) TD(NStates=1) EmpiricalDispersion=GD3 SP
 ---------------------------------------------------------------

 ------
 SP_-50
 ------
 Symbolic Z-matrix:
 Charge =  1 Multiplicity = 1

                         Standard orientation:
 ---------------------------------------------------------------------
 Center     Atomic      Atomic             Coordinates (Angstroms)
 Number     Number       Type             X           Y           Z
 ---------------------------------------------------------------------
      1          6           0        2.487730   -1.371814    0.000000
      2          6           0        3.701371   -0.690270    0.000000
      3          6           0        3.687246    0.693454    0.000000
      4          6           0        2.465148    1.394385    0.000000
      5          6           0       -2.460936    1.420294    0.000000
      6          6           0       -3.678958    0.731594    0.000000
      7          6           0       -3.699169   -0.654656    0.000000
      8          6           0       -2.492875   -1.350518    0.000000
      9          6           0       -0.004124   -1.447910    0.000000
     10          6           0        0.000000    1.428949    0.000000
     11          6           0        1.257965   -0.680500    0.000000
     12          6           0        1.238562    0.725497    0.000000
     13          6           0       -1.265852   -0.673382    0.000000
     14          6           0       -1.237413    0.736833    0.000000
     15          1           0        2.475683   -2.455072    0.000000
     16          1           0        4.634121   -1.234194    0.000000
     17          1           0        4.613572    1.250943    0.000000
     18          1           0        2.476717    2.476970    0.000000
     19          1           0        0.005163    2.510162    0.000000
     20          1           0       -2.458967    2.502796    0.000000
     21          1           0       -4.604193    1.290686    0.000000
     22          1           0       -4.636504   -1.191122    0.000000
     23          1           0       -2.494972   -2.433744    0.000000
     24          1           0       -0.001394   -2.144579    0.858225
     25          1           0       -0.001394   -2.144579   -0.858225
 ---------------------------------------------------------------------

 SCF Done:  E(RM062X) =  -539.760029484     A.U. after   15 cycles

 Excitation energies and oscillator strengths:

 Excited State   1:      Singlet-A'     2.8186 eV  439.88 nm  f=0.0286  <S**2>=0.000
      47 -> 48         0.70422
 This state for optimization and/or second-order correction.
 Total Energy, E(TD-HF/TD-DFT) =  -539.656448638
 Copying the excited state density for this state as the 1-particle RhoCI density.

 The electronic state is 1-A'.
 Alpha  occ. eigenvalues --  -10.77654 -10.73280 -10.73135 -10.72482 -10.72365
 Alpha  occ. eigenvalues --  -10.71434 -10.71297 -10.71139 -10.70963 -10.70881
 Alpha  occ. eigenvalues --  -10.70003 -10.69938 -10.69663 -10.69580  -1.16476
 Alpha  occ. eigenvalues --   -1.12487  -1.06945  -1.05783  -1.01314  -1.00226
 Alpha  occ. eigenvalues --   -0.95773  -0.91068  -0.86423  -0.85912  -0.83827
 Alpha  occ. eigenvalues --   -0.78403  -0.76059  -0.74421  -0.69550  -0.69254
 Alpha  occ. eigenvalues --   -0.68511  -0.68204  -0.68092  -0.64759  -0.64296
 Alpha  occ. eigenvalues --   -0.63103  -0.61866  -0.59986  -0.59675  -0.59085
 Alpha  occ. eigenvalues --   -0.56915  -0.55209  -0.54854  -0.52434  -0.46658
 Alpha  occ. eigenvalues --   -0.46060  -0.44467
 Alpha virt. eigenvalues --   -0.26076  -0.14673  -0.14095  -0.12771  -0.11181
 Alpha virt. eigenvalues --   -0.10090  -0.09230  -0.07983  -0.07963  -0.07477
 Alpha virt. eigenvalues --   -0.07208  -0.07148  -0.05641  -0.05583  -0.05335

 Mulliken charges:
               1
     1  C    0.096572
     2  C   -0.407724
     3  C   -0.440774
     4  C    0.019984
     5  C    0.025162
     6  C   -0.439459
     7  C   -0.405999
     8  C    0.090544
     9  C   -0.321309
    10  C    0.100054
    11  C   -0.637008
    12  C    0.667048
    13  C   -0.642359
    14  C    0.674968
    15  H    0.236689
    16  H    0.255853
    17  H    0.248529
    18  H    0.221500
    19  H    0.190245
    20  H    0.222454
    21  H    0.249427
    22  H    0.256982
    23  H    0.237332
    24  H    0.250645
    25  H    0.250645
 Sum of Mulliken charges =   1.00000

 Dipole moment (field-independent basis, Debye):
    X=             -0.1392    Y=              0.1837    Z=              0.0000  Tot=              0.2305
 Quadrupole moment (field-independent basis, Debye-Ang):
   XX=            -31.1455   YY=            -56.2531   ZZ=            -84.1408
   XY=             -0.1767   XZ=             -0.0000   YZ=             -0.0000

 Normal termination of Gaussian 16 at Wed Jul 27 10:41:52 2022.
