 Gaussian 16, Revision C.01,
 Gaussian 16:  ES64L-G16RevC.01  3-Jul-2019

 ---------------------------------------------------------------
 #n M062X/6-311++G(d,p) TD(NStates=1) EmpiricalDispersion=GD3 SP
 ---------------------------------------------------------------

 -----
 SP_50
 -----
 Symbolic Z-matrix:
 Charge =  1 Multiplicity = 1

                         Standard orientation:
 ---------------------------------------------------------------------
 Center     Atomic      Atomic             Coordinates (Angstroms)
 Number     Number       Type             X           Y           Z
 ---------------------------------------------------------------------
      1          6           0        2.491549   -1.370619    0.000000
      2          6           0        3.703284   -0.689559    0.000000
      3          6           0        3.688457    0.695468    0.000000
      4          6           0        2.465348    1.394796    0.000000
      5          6           0       -2.461136    1.420679    0.000000
      6          6           0       -3.680147    0.733576    0.000000
      7          6           0       -3.701056   -0.653971    0.000000
      8          6           0       -2.496656   -1.349318    0.000000
      9          6           0       -0.004247   -1.456712    0.000000
     10          6           0        0.000000    1.429347    0.000000
     11          6           0        1.258275   -0.680597    0.000000
     12          6           0        1.237761    0.724905    0.000000
     13          6           0       -1.266143   -0.673490    0.000000
     14          6           0       -1.236613    0.736220    0.000000
     15          1           0        2.480108   -2.453779    0.000000
     16          1           0        4.636441   -1.232680    0.000000
     17          1           0        4.614182    1.253464    0.000000
     18          1           0        2.476111    2.477284    0.000000
     19          1           0        0.005156    2.510360    0.000000
     20          1           0       -2.458373    2.503077    0.000000
     21          1           0       -4.604783    1.293161    0.000000
     22          1           0       -4.638784   -1.189640    0.000000
     23          1           0       -2.499346   -2.432442    0.000000
     24          1           0       -0.001385   -2.146581    0.860425
     25          1           0       -0.001385   -2.146581   -0.860425
 ---------------------------------------------------------------------

 SCF Done:  E(RM062X) =  -539.760151157     A.U. after   15 cycles

 Excitation energies and oscillator strengths:

 Excited State   1:      Singlet-A'     2.8194 eV  439.76 nm  f=0.0282  <S**2>=0.000
      47 -> 48         0.70422
 This state for optimization and/or second-order correction.
 Total Energy, E(TD-HF/TD-DFT) =  -539.656541900
 Copying the excited state density for this state as the 1-particle RhoCI density.

 The electronic state is 1-A'.
 Alpha  occ. eigenvalues --  -10.77672 -10.73332 -10.73188 -10.72500 -10.72383
 Alpha  occ. eigenvalues --  -10.71439 -10.71302 -10.71130 -10.70991 -10.70873
 Alpha  occ. eigenvalues --  -10.70005 -10.69940 -10.69676 -10.69594  -1.16424
 Alpha  occ. eigenvalues --   -1.12453  -1.06945  -1.05699  -1.01313  -1.00166
 Alpha  occ. eigenvalues --   -0.95780  -0.91047  -0.86417  -0.85893  -0.83811
 Alpha  occ. eigenvalues --   -0.78394  -0.76011  -0.74415  -0.69574  -0.69242
 Alpha  occ. eigenvalues --   -0.68493  -0.68183  -0.68107  -0.64747  -0.64274
 Alpha  occ. eigenvalues --   -0.63027  -0.61860  -0.60040  -0.59656  -0.59096
 Alpha  occ. eigenvalues --   -0.56889  -0.55223  -0.54817  -0.52441  -0.46627
 Alpha  occ. eigenvalues --   -0.46060  -0.44496
 Alpha virt. eigenvalues --   -0.26096  -0.14667  -0.14097  -0.12775  -0.11178
 Alpha virt. eigenvalues --   -0.10084  -0.09231  -0.07982  -0.07973  -0.07475
 Alpha virt. eigenvalues --   -0.07201  -0.07144  -0.05644  -0.05580  -0.05331

 Mulliken charges:
               1
     1  C    0.095456
     2  C   -0.407262
     3  C   -0.440806
     4  C    0.007608
     5  C    0.012296
     6  C   -0.439283
     7  C   -0.405708
     8  C    0.089732
     9  C   -0.342320
    10  C    0.088463
    11  C   -0.630452
    12  C    0.691599
    13  C   -0.636984
    14  C    0.698620
    15  H    0.237122
    16  H    0.255689
    17  H    0.248410
    18  H    0.221558
    19  H    0.190486
    20  H    0.222477
    21  H    0.249306
    22  H    0.256824
    23  H    0.237766
    24  H    0.249701
    25  H    0.249701
 Sum of Mulliken charges =   1.00000

 Dipole moment (field-independent basis, Debye):
    X=             -0.1393    Y=              0.1909    Z=             -0.0000  Tot=              0.2363
 Quadrupole moment (field-independent basis, Debye-Ang):
   XX=            -31.0994   YY=            -56.2660   ZZ=            -84.1426
   XY=             -0.1768   XZ=             -0.0000   YZ=              0.0000

 Normal termination of Gaussian 16 at Wed Jul 27 11:51:08 2022.
