 Gaussian 16, Revision C.01,
 Gaussian 16:  ES64L-G16RevC.01  3-Jul-2019

 ---------------------------------------------------------------
 #n M062X/6-311++G(d,p) TD(NStates=1) EmpiricalDispersion=GD3 SP
 ---------------------------------------------------------------

 -----
 SP_50
 -----
 Symbolic Z-matrix:
 Charge =  1 Multiplicity = 1

                         Standard orientation:
 ---------------------------------------------------------------------
 Center     Atomic      Atomic             Coordinates (Angstroms)
 Number     Number       Type             X           Y           Z
 ---------------------------------------------------------------------
      1          6           0        2.497616   -1.349004    0.000000
      2          6           0        3.701539   -0.653779    0.000000
      3          6           0        3.680449    0.734092    0.000000
      4          6           0        2.461186    1.420789    0.000000
      5          6           0       -2.465398    1.394885    0.000000
      6          6           0       -3.688755    0.695951    0.000000
      7          6           0       -3.703751   -0.689402    0.000000
      8          6           0       -2.492488   -1.370333    0.000000
      9          6           0        0.004169   -1.458913    0.000000
     10          6           0        0.000000    1.429446    0.000000
     11          6           0        1.266227   -0.673510    0.000000
     12          6           0        1.236417    0.736074    0.000000
     13          6           0       -1.258341   -0.680628    0.000000
     14          6           0       -1.237557    0.724751    0.000000
     15          1           0        2.500461   -2.432102    0.000000
     16          1           0        4.639369   -1.189244    0.000000
     17          1           0        4.604931    1.293805    0.000000
     18          1           0        2.458219    2.503161    0.000000
     19          1           0       -0.005160    2.510409    0.000000
     20          1           0       -2.475965    2.477349    0.000000
     21          1           0       -4.614333    1.254069    0.000000
     22          1           0       -4.637006   -1.232327    0.000000
     23          1           0       -2.481193   -2.453470    0.000000
     24          1           0        0.001402   -2.147081    0.860975
     25          1           0        0.001402   -2.147081   -0.860975
 ---------------------------------------------------------------------

 SCF Done:  E(RM062X) =  -539.760160080     A.U. after   15 cycles

 Excitation energies and oscillator strengths:

 Excited State   1:      Singlet-A'     2.8195 eV  439.74 nm  f=0.0281  <S**2>=0.000
      47 -> 48         0.70422
 This state for optimization and/or second-order correction.
 Total Energy, E(TD-HF/TD-DFT) =  -539.656545352
 Copying the excited state density for this state as the 1-particle RhoCI density.

 The electronic state is 1-A'.
 Alpha  occ. eigenvalues --  -10.77677 -10.73346 -10.73200 -10.72504 -10.72388
 Alpha  occ. eigenvalues --  -10.71441 -10.71303 -10.71128 -10.70998 -10.70871
 Alpha  occ. eigenvalues --  -10.70006 -10.69940 -10.69680 -10.69598  -1.16412
 Alpha  occ. eigenvalues --   -1.12445  -1.06945  -1.05678  -1.01313  -1.00151
 Alpha  occ. eigenvalues --   -0.95782  -0.91042  -0.86415  -0.85889  -0.83807
 Alpha  occ. eigenvalues --   -0.78392  -0.75999  -0.74414  -0.69579  -0.69239
 Alpha  occ. eigenvalues --   -0.68489  -0.68178  -0.68111  -0.64744  -0.64268
 Alpha  occ. eigenvalues --   -0.63009  -0.61859  -0.60054  -0.59650  -0.59099
 Alpha  occ. eigenvalues --   -0.56882  -0.55226  -0.54807  -0.52442  -0.46620
 Alpha  occ. eigenvalues --   -0.46060  -0.44503
 Alpha virt. eigenvalues --   -0.26101  -0.14666  -0.14098  -0.12776  -0.11177
 Alpha virt. eigenvalues --   -0.10082  -0.09231  -0.07982  -0.07976  -0.07475
 Alpha virt. eigenvalues --   -0.07199  -0.07143  -0.05645  -0.05579  -0.05330

 Mulliken charges:
               1
     1  C    0.089247
     2  C   -0.405431
     3  C   -0.439245
     4  C    0.009356
     5  C    0.004739
     6  C   -0.440817
     7  C   -0.407021
     8  C    0.094788
     9  C   -0.347472
    10  C    0.085380
    11  C   -0.634997
    12  C    0.703902
    13  C   -0.628313
    14  C    0.697149
    15  H    0.237863
    16  H    0.256787
    17  H    0.249277
    18  H    0.222489
    19  H    0.190547
    20  H    0.221578
    21  H    0.248381
    22  H    0.255651
    23  H    0.237223
    24  H    0.249470
    25  H    0.249470
 Sum of Mulliken charges =   1.00000

 Dipole moment (field-independent basis, Debye):
    X=              0.1393    Y=              0.1927    Z=             -0.0000  Tot=              0.2378
 Quadrupole moment (field-independent basis, Debye-Ang):
   XX=            -31.0882   YY=            -56.2692   ZZ=            -84.1431
   XY=              0.1768   XZ=              0.0000   YZ=              0.0000

 Normal termination of Gaussian 16 at Wed Jul 27 11:53:59 2022.
