 Gaussian 16, Revision C.01,
 Gaussian 16:  ES64L-G16RevC.01  3-Jul-2019

 ---------------------------------------------------------------
 #n M062X/6-311++G(d,p) TD(NStates=1) EmpiricalDispersion=GD3 SP
 ---------------------------------------------------------------

 -------
 SP_-100
 -------
 Symbolic Z-matrix:
 Charge =  1 Multiplicity = 1

                         Standard orientation:
 ---------------------------------------------------------------------
 Center     Atomic      Atomic             Coordinates (Angstroms)
 Number     Number       Type             X           Y           Z
 ---------------------------------------------------------------------
      1          6           0       -1.361614   -2.488894    0.000000
      2          6           0       -0.672714   -3.699594    0.000000
      3          6           0        0.711786   -3.682694    0.000000
      4          6           0        1.407186   -2.462994    0.000000
      5          6           0        1.407186    2.463006    0.000000
      6          6           0        0.711786    3.682706    0.000000
      7          6           0       -0.672714    3.699606    0.000000
      8          6           0       -1.361614    2.488906    0.000000
      9          6           0       -1.444614   -0.000094    0.000000
     10          6           0        1.428786    0.000006    0.000000
     11          6           0       -0.676914   -1.261794    0.000000
     12          6           0        0.731386   -1.238294    0.000000
     13          6           0       -0.676914    1.261806    0.000000
     14          6           0        0.731386    1.238306    0.000000
     15          1           0       -2.444914   -2.483694    0.000000
     16          1           0       -1.213214   -4.634494    0.000000
     17          1           0        1.269886   -4.608694    0.000000
     18          1           0        2.489786   -2.468094    0.000000
     19          1           0        2.510086    0.000006    0.000000
     20          1           0        2.489786    2.468106    0.000000
     21          1           0        1.269886    4.608706    0.000000
     22          1           0       -1.213214    4.634506    0.000000
     23          1           0       -2.444914    2.483706    0.000000
     24          1           0       -2.143814    0.000006    0.857400
     25          1           0       -2.143814    0.000006   -0.857400
 ---------------------------------------------------------------------

 SCF Done:  E(RM062X) =  -539.760058126     A.U. after   15 cycles

 Excitation energies and oscillator strengths:

 Excited State   1:      Singlet-A'     2.8217 eV  439.39 nm  f=0.0291  <S**2>=0.000
      47 -> 48         0.70426
 This state for optimization and/or second-order correction.
 Total Energy, E(TD-HF/TD-DFT) =  -539.656361659
 Copying the excited state density for this state as the 1-particle RhoCI density.

 The electronic state is 1-A'.
 Alpha  occ. eigenvalues --  -10.77649 -10.73189 -10.73188 -10.72419 -10.72417
 Alpha  occ. eigenvalues --  -10.71364 -10.71364 -10.71012 -10.71012 -10.70953
 Alpha  occ. eigenvalues --  -10.69970 -10.69970 -10.69616 -10.69616  -1.16494
 Alpha  occ. eigenvalues --   -1.12500  -1.06945  -1.05812  -1.01315  -1.00244
 Alpha  occ. eigenvalues --   -0.95774  -0.91077  -0.86426  -0.85919  -0.83834
 Alpha  occ. eigenvalues --   -0.78407  -0.76075  -0.74424  -0.69537  -0.69258
 Alpha  occ. eigenvalues --   -0.68521  -0.68214  -0.68087  -0.64751  -0.64307
 Alpha  occ. eigenvalues --   -0.63140  -0.61872  -0.59944  -0.59703  -0.59078
 Alpha  occ. eigenvalues --   -0.56924  -0.55201  -0.54875  -0.52432  -0.46656
 Alpha  occ. eigenvalues --   -0.46057  -0.44472
 Alpha virt. eigenvalues --   -0.26069  -0.14675  -0.14094  -0.12770  -0.11182
 Alpha virt. eigenvalues --   -0.10093  -0.09230  -0.07984  -0.07960  -0.07477
 Alpha virt. eigenvalues --   -0.07210  -0.07149  -0.05640  -0.05585  -0.05336

 Mulliken charges:
               1
     1  C    0.093244
     2  C   -0.406703
     3  C   -0.440172
     4  C    0.027719
     5  C    0.027763
     6  C   -0.440170
     7  C   -0.406641
     8  C    0.093334
     9  C   -0.313250
    10  C    0.104125
    11  C   -0.641075
    12  C    0.661025
    13  C   -0.640954
    14  C    0.660965
    15  H    0.236831
    16  H    0.256481
    17  H    0.249023
    18  H    0.221971
    19  H    0.190172
    20  H    0.221971
    21  H    0.249024
    22  H    0.256481
    23  H    0.236829
    24  H    0.251004
    25  H    0.251004
 Sum of Mulliken charges =   1.00000

 Dipole moment (field-independent basis, Debye):
    X=              0.1807    Y=              0.0000    Z=              0.0000  Tot=              0.1807
 Quadrupole moment (field-independent basis, Debye-Ang):
   XX=            -56.2490   YY=            -31.1639   ZZ=            -84.1403
   XY=             -0.0001   XZ=             -0.0000   YZ=             -0.0000

 Normal termination of Gaussian 16 at Wed Jul 27 10:07:06 2022.
