 Gaussian 16, Revision C.01,
 Gaussian 16:  ES64L-G16RevC.01  3-Jul-2019

 ---------------------------------------------------------------
 #n M062X/6-311++G(d,p) TD(NStates=1) EmpiricalDispersion=GD3 SP
 ---------------------------------------------------------------

 ------
 SP_-50
 ------
 Symbolic Z-matrix:
 Charge =  1 Multiplicity = 1

                         Standard orientation:
 ---------------------------------------------------------------------
 Center     Atomic      Atomic             Coordinates (Angstroms)
 Number     Number       Type             X           Y           Z
 ---------------------------------------------------------------------
      1          6           0       -2.358095   -1.548090    0.000000
      2          6           0       -2.300299   -2.939770    0.000000
      3          6           0       -1.067843   -3.594673    0.000000
      4          6           0        0.094101   -2.867774    0.000000
      5          6           0        2.368739    1.502344    0.000000
      6          6           0        2.338107    2.939783    0.000000
      7          6           0        1.138903    3.617517    0.000000
      8          6           0       -0.024604    2.860704    0.000000
      9          6           0       -1.280911    0.693906    0.000000
     10          6           0        1.243317   -0.706425    0.000000
     11          6           0       -1.203650   -0.799324    0.000000
     12          6           0        0.060914   -1.452229    0.000000
     13          6           0        0.000000    1.419834    0.000000
     14          6           0        1.213798    0.737184    0.000000
     15          1           0       -3.321140   -1.052744    0.000000
     16          1           0       -3.216247   -3.513236    0.000000
     17          1           0       -1.032322   -4.674841    0.000000
     18          1           0        1.055566   -3.364235    0.000000
     19          1           0        2.200532   -1.208784    0.000000
     20          1           0        3.334717    1.012546    0.000000
     21          1           0        3.278288    3.474363    0.000000
     22          1           0        1.101484    4.695860    0.000000
     23          1           0       -0.992203    3.348560    0.000000
     24          1           0       -1.871760    1.052295    0.860425
     25          1           0       -1.871760    1.052295   -0.860425
 ---------------------------------------------------------------------

 SCF Done:  E(RM062X) =  -539.754931558     A.U. after   15 cycles

 Excitation energies and oscillator strengths:

 Excited State   1:      Singlet-A'     2.6860 eV  461.60 nm  f=0.0203  <S**2>=0.000
      47 -> 48         0.70355
 This state for optimization and/or second-order correction.
 Total Energy, E(TD-HF/TD-DFT) =  -539.656223860
 Copying the excited state density for this state as the 1-particle RhoCI density.

 The electronic state is 1-A'.
 Alpha  occ. eigenvalues --  -10.77603 -10.73754 -10.72815 -10.72745 -10.72002
 Alpha  occ. eigenvalues --  -10.71931 -10.71825 -10.70994 -10.70871 -10.70202
 Alpha  occ. eigenvalues --  -10.70136 -10.69918 -10.69745 -10.69349  -1.16508
 Alpha  occ. eigenvalues --   -1.12460  -1.06939  -1.05804  -1.01290  -1.00359
 Alpha  occ. eigenvalues --   -0.95602  -0.91027  -0.86437  -0.85887  -0.83779
 Alpha  occ. eigenvalues --   -0.78341  -0.76106  -0.74373  -0.69755  -0.69305
 Alpha  occ. eigenvalues --   -0.68333  -0.68097  -0.68079  -0.65183  -0.64232
 Alpha  occ. eigenvalues --   -0.62774  -0.61628  -0.60413  -0.59305  -0.59154
 Alpha  occ. eigenvalues --   -0.56929  -0.55264  -0.54581  -0.52442  -0.47192
 Alpha  occ. eigenvalues --   -0.46120  -0.43903
 Alpha virt. eigenvalues --   -0.26109  -0.14666  -0.14080  -0.12765  -0.11188
 Alpha virt. eigenvalues --   -0.10090  -0.09254  -0.07964  -0.07937  -0.07482
 Alpha virt. eigenvalues --   -0.07208  -0.07136  -0.05647  -0.05574  -0.05348

 Mulliken charges:
               1
     1  C    0.073509
     2  C   -0.401529
     3  C   -0.433319
     4  C    0.024499
     5  C   -0.007025
     6  C   -0.444094
     7  C   -0.412523
     8  C    0.113113
     9  C   -0.348139
    10  C    0.081358
    11  C   -0.652498
    12  C    0.719132
    13  C   -0.604230
    14  C    0.672512
    15  H    0.239814
    16  H    0.260196
    17  H    0.251992
    18  H    0.225290
    19  H    0.189761
    20  H    0.218963
    21  H    0.245747
    22  H    0.252310
    23  H    0.235374
    24  H    0.249893
    25  H    0.249893
 Sum of Mulliken charges =   1.00000

 Dipole moment (field-independent basis, Debye):
    X=             -0.3003    Y=             -0.9462    Z=              0.0000  Tot=              0.9927
 Quadrupole moment (field-independent basis, Debye-Ang):
   XX=            -51.1514   YY=            -36.1391   ZZ=            -84.1340
   XY=             10.1768   XZ=             -0.0000   YZ=              0.0000

 Normal termination of Gaussian 16 at Wed Jul 27 10:53:23 2022.
