 Gaussian 16, Revision C.01,
 Gaussian 16:  ES64L-G16RevC.01  3-Jul-2019

 ---------------------------------------------------------------
 #n M062X/6-311++G(d,p) TD(NStates=1) EmpiricalDispersion=GD3 SP
 ---------------------------------------------------------------

 -----
 SP_75
 -----
 Symbolic Z-matrix:
 Charge =  1 Multiplicity = 1

                         Standard orientation:
 ---------------------------------------------------------------------
 Center     Atomic      Atomic             Coordinates (Angstroms)
 Number     Number       Type             X           Y           Z
 ---------------------------------------------------------------------
      1          6           0        0.022689    2.851796    0.000000
      2          6           0       -1.147026    3.601276    0.000000
      3          6           0       -2.352096    2.926573    0.000000
      4          6           0       -2.384194    1.503614    0.000000
      5          6           0       -0.086288   -2.854180    0.000000
      6          6           0        1.086941   -3.590094    0.000000
      7          6           0        2.318155   -2.941750    0.000000
      8          6           0        2.366279   -1.550561    0.000000
      9          6           0        1.281130    0.691082    0.000000
     10          6           0       -1.250177   -0.693197    0.000000
     11          6           0        0.000000    1.425149    0.000000
     12          6           0       -1.220253    0.740556    0.000000
     13          6           0        1.199192   -0.796228    0.000000
     14          6           0       -0.060055   -1.445214    0.000000
     15          1           0        0.985629    3.348317    0.000000
     16          1           0       -1.111340    4.680041    0.000000
     17          1           0       -3.287764    3.468319    0.000000
     18          1           0       -3.345877    1.006006    0.000000
     19          1           0       -2.205449   -1.199288    0.000000
     20          1           0       -1.043678   -3.358792    0.000000
     21          1           0        1.043140   -4.669948    0.000000
     22          1           0        3.234851   -3.513356    0.000000
     23          1           0        3.324774   -1.046323    0.000000
     24          1           0        1.879966    1.036051    0.860150
     25          1           0        1.879966    1.036051   -0.860150
 ---------------------------------------------------------------------

 SCF Done:  E(RM062X) =  -539.758499633     A.U. after   15 cycles

 Excitation energies and oscillator strengths:

 Excited State   1:      Singlet-A'     2.7704 eV  447.53 nm  f=0.0246  <S**2>=0.000
      47 -> 48         0.70382
 This state for optimization and/or second-order correction.
 Total Energy, E(TD-HF/TD-DFT) =  -539.656689912
 Copying the excited state density for this state as the 1-particle RhoCI density.

 The electronic state is 1-A'.
 Alpha  occ. eigenvalues --  -10.77649 -10.73539 -10.72961 -10.72662 -10.72196
 Alpha  occ. eigenvalues --  -10.71637 -10.71527 -10.71089 -10.70988 -10.70498
 Alpha  occ. eigenvalues --  -10.70103 -10.69842 -10.69797 -10.69469  -1.16457
 Alpha  occ. eigenvalues --   -1.12460  -1.06943  -1.05742  -1.01306  -1.00236
 Alpha  occ. eigenvalues --   -0.95721  -0.91044  -0.86424  -0.85894  -0.83803
 Alpha  occ. eigenvalues --   -0.78378  -0.76048  -0.74402  -0.69633  -0.69264
 Alpha  occ. eigenvalues --   -0.68440  -0.68150  -0.68101  -0.64912  -0.64255
 Alpha  occ. eigenvalues --   -0.62938  -0.61788  -0.60196  -0.59503  -0.59115
 Alpha  occ. eigenvalues --   -0.56906  -0.55242  -0.54738  -0.52440  -0.46828
 Alpha  occ. eigenvalues --   -0.46090  -0.44276
 Alpha virt. eigenvalues --   -0.26098  -0.14667  -0.14092  -0.12772  -0.11181
 Alpha virt. eigenvalues --   -0.10087  -0.09238  -0.07976  -0.07960  -0.07478
 Alpha virt. eigenvalues --   -0.07204  -0.07141  -0.05645  -0.05579  -0.05337

 Mulliken charges:
               1
     1  C    0.104319
     2  C   -0.409997
     3  C   -0.442581
     4  C    0.001794
     5  C    0.020392
     6  C   -0.436569
     7  C   -0.403717
     8  C    0.081229
     9  C   -0.341508
    10  C    0.087795
    11  C   -0.620514
    12  C    0.679275
    13  C   -0.646416
    14  C    0.707267
    15  H    0.236161
    16  H    0.254013
    17  H    0.247088
    18  H    0.220208
    19  H    0.190223
    20  H    0.223880
    21  H    0.250670
    22  H    0.258535
    23  H    0.238729
    24  H    0.249862
    25  H    0.249862
 Sum of Mulliken charges =   1.00000

 Dipole moment (field-independent basis, Debye):
    X=              0.0994    Y=             -0.5812    Z=              0.0000  Tot=              0.5896
 Quadrupole moment (field-independent basis, Debye-Ang):
   XX=            -50.9366   YY=            -36.4096   ZZ=            -84.1396
   XY=            -10.2958   XZ=             -0.0000   YZ=              0.0000

 Normal termination of Gaussian 16 at Wed Jul 27 12:04:15 2022.
