 Gaussian 16, Revision C.01,
 Gaussian 16:  ES64L-G16RevC.01  3-Jul-2019

 ---------------------------------------------------------------
 #n M062X/6-311++G(d,p) TD(NStates=1) EmpiricalDispersion=GD3 SP
 ---------------------------------------------------------------

 -----
 SP_50
 -----
 Symbolic Z-matrix:
 Charge =  1 Multiplicity = 1

                         Standard orientation:
 ---------------------------------------------------------------------
 Center     Atomic      Atomic             Coordinates (Angstroms)
 Number     Number       Type             X           Y           Z
 ---------------------------------------------------------------------
      1          6           0        0.025551    2.856102    0.000000
      2          6           0       -1.140823    3.611290    0.000000
      3          6           0       -2.341485    2.935259    0.000000
      4          6           0       -2.373663    1.502726    0.000000
      5          6           0       -0.091273   -2.863036    0.000000
      6          6           0        1.074996   -3.591967    0.000000
      7          6           0        2.306157   -2.939215    0.000000
      8          6           0        2.360435   -1.546578    0.000000
      9          6           0        1.276425    0.690596    0.000000
     10          6           0       -1.245373   -0.701932    0.000000
     11          6           0        0.000000    1.421422    0.000000
     12          6           0       -1.216493    0.738531    0.000000
     13          6           0        1.202049   -0.798135    0.000000
     14          6           0       -0.060682   -1.450469    0.000000
     15          1           0        0.991805    3.346589    0.000000
     16          1           0       -1.103484    4.689787    0.000000
     17          1           0       -3.280076    3.472648    0.000000
     18          1           0       -3.338471    1.010685    0.000000
     19          1           0       -2.202034   -1.205612    0.000000
     20          1           0       -1.051205   -3.362678    0.000000
     21          1           0        1.037161   -4.672198    0.000000
     22          1           0        3.222671   -3.511616    0.000000
     23          1           0        3.321844   -1.047907    0.000000
     24          1           0        1.873429    1.046370    0.859050
     25          1           0        1.873429    1.046370   -0.859050
 ---------------------------------------------------------------------

 SCF Done:  E(RM062X) =  -539.756267156     A.U. after   15 cycles

 Excitation energies and oscillator strengths:

 Excited State   1:      Singlet-A'     2.7176 eV  456.23 nm  f=0.0220  <S**2>=0.000
      47 -> 48         0.70359
 This state for optimization and/or second-order correction.
 Total Energy, E(TD-HF/TD-DFT) =  -539.656398798
 Copying the excited state density for this state as the 1-particle RhoCI density.

 The electronic state is 1-A'.
 Alpha  occ. eigenvalues --  -10.77611 -10.73651 -10.72789 -10.72755 -10.72057
 Alpha  occ. eigenvalues --  -10.71800 -10.71761 -10.70976 -10.70941 -10.70260
 Alpha  occ. eigenvalues --  -10.70167 -10.69870 -10.69777 -10.69380  -1.16517
 Alpha  occ. eigenvalues --   -1.12480  -1.06940  -1.05827  -1.01297  -1.00346
 Alpha  occ. eigenvalues --   -0.95644  -0.91045  -0.86435  -0.85900  -0.83798
 Alpha  occ. eigenvalues --   -0.78360  -0.76110  -0.74387  -0.69699  -0.69296
 Alpha  occ. eigenvalues --   -0.68383  -0.68117  -0.68090  -0.65097  -0.64251
 Alpha  occ. eigenvalues --   -0.62862  -0.61702  -0.60320  -0.59369  -0.59134
 Alpha  occ. eigenvalues --   -0.56934  -0.55257  -0.54655  -0.52438  -0.47072
 Alpha  occ. eigenvalues --   -0.46108  -0.44027
 Alpha virt. eigenvalues --   -0.26093  -0.14669  -0.14084  -0.12765  -0.11187
 Alpha virt. eigenvalues --   -0.10093  -0.09248  -0.07969  -0.07940  -0.07481
 Alpha virt. eigenvalues --   -0.07210  -0.07141  -0.05644  -0.05578  -0.05346

 Mulliken charges:
               1
     1  C    0.111823
     2  C   -0.412243
     3  C   -0.443337
     4  C    0.002148
     5  C    0.031083
     6  C   -0.434857
     7  C   -0.402464
     8  C    0.076339
     9  C   -0.333561
    10  C    0.090905
    11  C   -0.616254
    12  C    0.659877
    13  C   -0.653023
    14  C    0.703622
    15  H    0.235385
    16  H    0.252972
    17  H    0.246254
    18  H    0.219276
    19  H    0.189792
    20  H    0.224849
    21  H    0.251625
    22  H    0.259724
    23  H    0.239211
    24  H    0.250426
    25  H    0.250426
 Sum of Mulliken charges =   1.00000

 Dipole moment (field-independent basis, Debye):
    X=              0.2368    Y=             -0.8227    Z=              0.0000  Tot=              0.8561
 Quadrupole moment (field-independent basis, Debye-Ang):
   XX=            -51.0801   YY=            -36.2514   ZZ=            -84.1351
   XY=            -10.2007   XZ=              0.0000   YZ=              0.0000

 Normal termination of Gaussian 16 at Wed Jul 27 11:43:56 2022.
