 Gaussian 16, Revision C.01,
 Gaussian 16:  ES64L-G16RevC.01  3-Jul-2019

 ---------------------------------------------------------------
 #n M062X/6-311++G(d,p) TD(NStates=1) EmpiricalDispersion=GD3 SP
 ---------------------------------------------------------------

 -----
 SP_50
 -----
 Symbolic Z-matrix:
 Charge =  1 Multiplicity = 1

                         Standard orientation:
 ---------------------------------------------------------------------
 Center     Atomic      Atomic             Coordinates (Angstroms)
 Number     Number       Type             X           Y           Z
 ---------------------------------------------------------------------
      1          6           0        0.021237    2.846092    0.000000
      2          6           0       -1.152478    3.590564    0.000000
      3          6           0       -2.361549    2.917775    0.000000
      4          6           0       -2.394527    1.504449    0.000000
      5          6           0       -0.081176   -2.845137    0.000000
      6          6           0        1.099520   -3.587183    0.000000
      7          6           0        2.330061   -2.943229    0.000000
      8          6           0        2.371793   -1.552550    0.000000
      9          6           0        1.281926    0.689566    0.000000
     10          6           0       -1.254830   -0.684403    0.000000
     11          6           0       -0.000000    1.428721    0.000000
     12          6           0       -1.224485    0.742766    0.000000
     13          6           0        1.196227   -0.794215    0.000000
     14          6           0       -0.059506   -1.440459    0.000000
     15          1           0        0.981026    3.348407    0.000000
     16          1           0       -1.118008    4.669605    0.000000
     17          1           0       -3.294238    3.464261    0.000000
     18          1           0       -3.353295    1.001602    0.000000
     19          1           0       -2.208791   -1.192958    0.000000
     20          1           0       -1.035860   -3.355098    0.000000
     21          1           0        1.050124   -4.666829    0.000000
     22          1           0        3.247202   -3.513668    0.000000
     23          1           0        3.327256   -1.042456    0.000000
     24          1           0        1.885652    1.025301    0.860150
     25          1           0        1.885652    1.025301   -0.860150
 ---------------------------------------------------------------------

 SCF Done:  E(RM062X) =  -539.759796921     A.U. after   15 cycles

 Excitation energies and oscillator strengths:

 Excited State   1:      Singlet-A'     2.8086 eV  441.44 nm  f=0.0274  <S**2>=0.000
      47 -> 48         0.70410
 This state for optimization and/or second-order correction.
 Total Energy, E(TD-HF/TD-DFT) =  -539.656581643
 Copying the excited state density for this state as the 1-particle RhoCI density.

 The electronic state is 1-A'.
 Alpha  occ. eigenvalues --  -10.77666 -10.73397 -10.73108 -10.72554 -10.72321
 Alpha  occ. eigenvalues --  -10.71506 -10.71262 -10.71232 -10.70987 -10.70747
 Alpha  occ. eigenvalues --  -10.70038 -10.69907 -10.69715 -10.69551  -1.16436
 Alpha  occ. eigenvalues --   -1.12458  -1.06945  -1.05716  -1.01312  -1.00186
 Alpha  occ. eigenvalues --   -0.95767  -0.91049  -0.86419  -0.85895  -0.83811
 Alpha  occ. eigenvalues --   -0.78392  -0.76023  -0.74413  -0.69584  -0.69247
 Alpha  occ. eigenvalues --   -0.68484  -0.68179  -0.68104  -0.64784  -0.64271
 Alpha  occ. eigenvalues --   -0.63015  -0.61846  -0.60075  -0.59618  -0.59099
 Alpha  occ. eigenvalues --   -0.56895  -0.55226  -0.54804  -0.52440  -0.46672
 Alpha  occ. eigenvalues --   -0.46068  -0.44445
 Alpha virt. eigenvalues --   -0.26094  -0.14668  -0.14096  -0.12774  -0.11178
 Alpha virt. eigenvalues --   -0.10085  -0.09232  -0.07981  -0.07969  -0.07476
 Alpha virt. eigenvalues --   -0.07202  -0.07143  -0.05644  -0.05580  -0.05333

 Mulliken charges:
               1
     1  C    0.098299
     2  C   -0.408309
     3  C   -0.441388
     4  C    0.006772
     5  C    0.016076
     6  C   -0.438393
     7  C   -0.405179
     8  C    0.086619
     9  C   -0.340045
    10  C    0.089548
    11  C   -0.628583
    12  C    0.686226
    13  C   -0.641268
    14  C    0.700451
    15  H    0.236762
    16  H    0.255144
    17  H    0.247979
    18  H    0.221096
    19  H    0.190405
    20  H    0.222939
    21  H    0.249775
    22  H    0.257407
    23  H    0.238054
    24  H    0.249807
    25  H    0.249807
 Sum of Mulliken charges =   1.00000

 Dipole moment (field-independent basis, Debye):
    X=             -0.0344    Y=             -0.3360    Z=              0.0000  Tot=              0.3378
 Quadrupole moment (field-independent basis, Debye-Ang):
   XX=            -50.7910   YY=            -36.5739   ZZ=            -84.1417
   XY=            -10.3849   XZ=              0.0000   YZ=              0.0000

 Normal termination of Gaussian 16 at Wed Jul 27 11:49:41 2022.
