 Gaussian 16, Revision C.01,
 Gaussian 16:  ES64L-G16RevC.01  3-Jul-2019

 ---------------------------------------------------------------
 #n M062X/6-311++G(d,p) TD(NStates=1) EmpiricalDispersion=GD3 SP
 ---------------------------------------------------------------

 -----
 SP_75
 -----
 Symbolic Z-matrix:
 Charge =  1 Multiplicity = 1

                         Standard orientation:
 ---------------------------------------------------------------------
 Center     Atomic      Atomic             Coordinates (Angstroms)
 Number     Number       Type             X           Y           Z
 ---------------------------------------------------------------------
      1          6           0        0.021615    2.849293    0.000000
      2          6           0       -1.149932    3.596094    0.000000
      3          6           0       -2.357106    2.922201    0.000000
      4          6           0       -2.389410    1.504043    0.000000
      5          6           0       -0.083771   -2.849704    0.000000
      6          6           0        1.093068   -3.588896    0.000000
      7          6           0        2.324130   -2.942752    0.000000
      8          6           0        2.369119   -1.552055    0.000000
      9          6           0        1.282506    0.690826    0.000000
     10          6           0       -1.252546   -0.688816    0.000000
     11          6           0        0.000000    1.426974    0.000000
     12          6           0       -1.222252    0.741615    0.000000
     13          6           0        1.197736   -0.795251    0.000000
     14          6           0       -0.059765   -1.442712    0.000000
     15          1           0        0.982937    3.348769    0.000000
     16          1           0       -1.114962    4.674995    0.000000
     17          1           0       -3.291300    3.466224    0.000000
     18          1           0       -3.349581    1.003736    0.000000
     19          1           0       -2.207143   -1.196124    0.000000
     20          1           0       -1.039848   -3.356894    0.000000
     21          1           0        1.046376   -4.668606    0.000000
     22          1           0        3.240982   -3.513869    0.000000
     23          1           0        3.326127   -1.044963    0.000000
     24          1           0        1.883028    1.030784    0.860425
     25          1           0        1.883028    1.030784   -0.860425
 ---------------------------------------------------------------------

 SCF Done:  E(RM062X) =  -539.759265275     A.U. after   15 cycles

 Excitation energies and oscillator strengths:

 Excited State   1:      Singlet-A'     2.7919 eV  444.08 nm  f=0.0260  <S**2>=0.000
      47 -> 48         0.70396
 This state for optimization and/or second-order correction.
 Total Energy, E(TD-HF/TD-DFT) =  -539.656663338
 Copying the excited state density for this state as the 1-particle RhoCI density.

 The electronic state is 1-A'.
 Alpha  occ. eigenvalues --  -10.77661 -10.73475 -10.73041 -10.72611 -10.72261
 Alpha  occ. eigenvalues --  -10.71573 -10.71393 -10.71162 -10.70991 -10.70621
 Alpha  occ. eigenvalues --  -10.70071 -10.69874 -10.69758 -10.69512  -1.16439
 Alpha  occ. eigenvalues --   -1.12455  -1.06944  -1.05717  -1.01309  -1.00200
 Alpha  occ. eigenvalues --   -0.95748  -0.91044  -0.86420  -0.85892  -0.83805
 Alpha  occ. eigenvalues --   -0.78385  -0.76028  -0.74408  -0.69608  -0.69253
 Alpha  occ. eigenvalues --   -0.68463  -0.68164  -0.68105  -0.64838  -0.64261
 Alpha  occ. eigenvalues --   -0.62973  -0.61821  -0.60137  -0.59563  -0.59107
 Alpha  occ. eigenvalues --   -0.56896  -0.55235  -0.54771  -0.52441  -0.46735
 Alpha  occ. eigenvalues --   -0.46079  -0.44375
 Alpha virt. eigenvalues --   -0.26098  -0.14667  -0.14094  -0.12774  -0.11179
 Alpha virt. eigenvalues --   -0.10085  -0.09235  -0.07979  -0.07967  -0.07476
 Alpha virt. eigenvalues --   -0.07202  -0.07142  -0.05645  -0.05579  -0.05334

 Mulliken charges:
               1
     1  C    0.100974
     2  C   -0.409013
     3  C   -0.442034
     4  C    0.002902
     5  C    0.016707
     6  C   -0.437464
     7  C   -0.404354
     8  C    0.083705
     9  C   -0.343241
    10  C    0.087295
    11  C   -0.623543
    12  C    0.685659
    13  C   -0.643156
    14  C    0.706518
    15  H    0.236508
    16  H    0.254557
    17  H    0.247519
    18  H    0.220662
    19  H    0.190360
    20  H    0.223410
    21  H    0.250207
    22  H    0.257953
    23  H    0.238440
    24  H    0.249714
    25  H    0.249714
 Sum of Mulliken charges =   1.00000

 Dipole moment (field-independent basis, Debye):
    X=              0.0316    Y=             -0.4592    Z=             -0.0000  Tot=              0.4603
 Quadrupole moment (field-independent basis, Debye-Ang):
   XX=            -50.8641   YY=            -36.4890   ZZ=            -84.1411
   XY=            -10.3426   XZ=              0.0000   YZ=              0.0000

 Normal termination of Gaussian 16 at Wed Jul 27 12:05:40 2022.
