 Gaussian 16, Revision C.01,
 Gaussian 16:  ES64L-G16RevC.01  3-Jul-2019

 ---------------------------------------------------------------
 #n M062X/6-311++G(d,p) TD(NStates=1) EmpiricalDispersion=GD3 SP
 ---------------------------------------------------------------

 -----
 SP_50
 -----
 Symbolic Z-matrix:
 Charge =  1 Multiplicity = 1

                         Standard orientation:
 ---------------------------------------------------------------------
 Center     Atomic      Atomic             Coordinates (Angstroms)
 Number     Number       Type             X           Y           Z
 ---------------------------------------------------------------------
      1          6           0        1.359817    2.494603    0.000000
      2          6           0        0.671667    3.702453    0.000000
      3          6           0       -0.714783    3.684503    0.000000
      4          6           0       -1.407783    2.463303    0.000000
      5          6           0       -1.407783   -2.463297    0.000000
      6          6           0       -0.714783   -3.684497    0.000000
      7          6           0        0.671667   -3.702447    0.000000
      8          6           0        1.359817   -2.494597    0.000000
      9          6           0        1.457817   -0.000047    0.000000
     10          6           0       -1.429383    0.000003    0.000000
     11          6           0        0.677067    1.262253    0.000000
     12          6           0       -0.730483    1.237103    0.000000
     13          6           0        0.677067   -1.262247    0.000000
     14          6           0       -0.730483   -1.237097    0.000000
     15          1           0        2.442967    2.490303    0.000000
     16          1           0        1.210967    4.637953    0.000000
     17          1           0       -1.273633    4.609603    0.000000
     18          1           0       -2.490233    2.467203    0.000000
     19          1           0       -2.510383    0.000003    0.000000
     20          1           0       -2.490233   -2.467197    0.000000
     21          1           0       -1.273633   -4.609597    0.000000
     22          1           0        1.210967   -4.637947    0.000000
     23          1           0        2.442967   -2.490297    0.000000
     24          1           0        2.146817    0.000003    0.860700
     25          1           0        2.146817    0.000003   -0.860700
 ---------------------------------------------------------------------

 SCF Done:  E(RM062X) =  -539.760265127     A.U. after   15 cycles

 Excitation energies and oscillator strengths:

 Excited State   1:      Singlet-A'     2.8231 eV  439.17 nm  f=0.0285  <S**2>=0.000
      47 -> 48         0.70426
 This state for optimization and/or second-order correction.
 Total Energy, E(TD-HF/TD-DFT) =  -539.656517525
 Copying the excited state density for this state as the 1-particle RhoCI density.

 The electronic state is 1-A'.
 Alpha  occ. eigenvalues --  -10.77676 -10.73267 -10.73266 -10.72445 -10.72444
 Alpha  occ. eigenvalues --  -10.71372 -10.71372 -10.71000 -10.71000 -10.70994
 Alpha  occ. eigenvalues --  -10.69973 -10.69972 -10.69637 -10.69637  -1.16416
 Alpha  occ. eigenvalues --   -1.12449  -1.06946  -1.05687  -1.01313  -1.00154
 Alpha  occ. eigenvalues --   -0.95785  -0.91045  -0.86415  -0.85891  -0.83809
 Alpha  occ. eigenvalues --   -0.78394  -0.76003  -0.74415  -0.69572  -0.69238
 Alpha  occ. eigenvalues --   -0.68495  -0.68183  -0.68109  -0.64733  -0.64273
 Alpha  occ. eigenvalues --   -0.63025  -0.61865  -0.60032  -0.59668  -0.59096
 Alpha  occ. eigenvalues --   -0.56885  -0.55222  -0.54818  -0.52441  -0.46610
 Alpha  occ. eigenvalues --   -0.46057  -0.44516
 Alpha virt. eigenvalues --   -0.26098  -0.14667  -0.14098  -0.12776  -0.11178
 Alpha virt. eigenvalues --   -0.10083  -0.09230  -0.07983  -0.07975  -0.07475
 Alpha virt. eigenvalues --   -0.07200  -0.07143  -0.05644  -0.05580  -0.05330

 Mulliken charges:
               1
     1  C    0.092326
     2  C   -0.406336
     3  C   -0.440066
     4  C    0.008526
     5  C    0.008505
     6  C   -0.440067
     7  C   -0.406366
     8  C    0.092281
     9  C   -0.344786
    10  C    0.087079
    11  C   -0.632822
    12  C    0.697842
    13  C   -0.632872
    14  C    0.697871
    15  H    0.237490
    16  H    0.256238
    17  H    0.248844
    18  H    0.222023
    19  H    0.190532
    20  H    0.222023
    21  H    0.248843
    22  H    0.256238
    23  H    0.237491
    24  H    0.249581
    25  H    0.249581
 Sum of Mulliken charges =   1.00000

 Dipole moment (field-independent basis, Debye):
    X=             -0.1915    Y=              0.0000    Z=              0.0000  Tot=              0.1915
 Quadrupole moment (field-independent basis, Debye-Ang):
   XX=            -56.2684   YY=            -31.0946   ZZ=            -84.1430
   XY=              0.0000   XZ=              0.0000   YZ=             -0.0000

 Normal termination of Gaussian 16 at Wed Jul 27 11:52:34 2022.
