 Gaussian 16, Revision C.01,
 Gaussian 16:  ES64L-G16RevC.01  3-Jul-2019

 ---------------------------------------------------------------
 #n M062X/6-311++G(d,p) TD(NStates=1) EmpiricalDispersion=GD3 SP
 ---------------------------------------------------------------

 -----
 SP_25
 -----
 Symbolic Z-matrix:
 Charge =  1 Multiplicity = 1

                         Standard orientation:
 ---------------------------------------------------------------------
 Center     Atomic      Atomic             Coordinates (Angstroms)
 Number     Number       Type             X           Y           Z
 ---------------------------------------------------------------------
      1          6           0        0.024057    2.850397    0.000000
      2          6           0       -1.146338    3.600577    0.000000
      3          6           0       -2.350986    2.926466    0.000000
      4          6           0       -2.383998    1.503571    0.000000
      5          6           0       -0.086105   -2.854002    0.000000
      6          6           0        1.087611   -3.589077    0.000000
      7          6           0        2.318074   -2.940707    0.000000
      8          6           0        2.365946   -1.548561    0.000000
      9          6           0        1.277210    0.689080    0.000000
     10          6           0       -1.249987   -0.693130    0.000000
     11          6           0        0.000000    1.424990    0.000000
     12          6           0       -1.220720    0.740742    0.000000
     13          6           0        1.199093   -0.796100    0.000000
     14          6           0       -0.060104   -1.445713    0.000000
     15          1           0        0.987173    3.346696    0.000000
     16          1           0       -1.110225    4.679353    0.000000
     17          1           0       -3.286585    3.468576    0.000000
     18          1           0       -3.345904    1.006275    0.000000
     19          1           0       -2.205338   -1.199286    0.000000
     20          1           0       -1.043341   -3.359009    0.000000
     21          1           0        1.044192   -4.669079    0.000000
     22          1           0        3.235039   -3.511931    0.000000
     23          1           0        3.324335   -1.044016    0.000000
     24          1           0        1.879065    1.035613    0.859050
     25          1           0        1.879065    1.035613   -0.859050
 ---------------------------------------------------------------------

 SCF Done:  E(RM062X) =  -539.758441837     A.U. after   15 cycles

 Excitation energies and oscillator strengths:

 Excited State   1:      Singlet-A'     2.7707 eV  447.48 nm  f=0.0249  <S**2>=0.000
      47 -> 48         0.70381
 This state for optimization and/or second-order correction.
 Total Energy, E(TD-HF/TD-DFT) =  -539.656620273
 Copying the excited state density for this state as the 1-particle RhoCI density.

 The electronic state is 1-A'.
 Alpha  occ. eigenvalues --  -10.77640 -10.73512 -10.72936 -10.72653 -10.72187
 Alpha  occ. eigenvalues --  -10.71635 -10.71531 -10.71086 -10.70974 -10.70502
 Alpha  occ. eigenvalues --  -10.70102 -10.69842 -10.69790 -10.69462  -1.16483
 Alpha  occ. eigenvalues --   -1.12477  -1.06943  -1.05784  -1.01306  -1.00266
 Alpha  occ. eigenvalues --   -0.95718  -0.91054  -0.86427  -0.85903  -0.83811
 Alpha  occ. eigenvalues --   -0.78383  -0.76071  -0.74405  -0.69623  -0.69270
 Alpha  occ. eigenvalues --   -0.68449  -0.68160  -0.68094  -0.64920  -0.64265
 Alpha  occ. eigenvalues --   -0.62970  -0.61794  -0.60177  -0.59503  -0.59109
 Alpha  occ. eigenvalues --   -0.56918  -0.55239  -0.54754  -0.52437  -0.46842
 Alpha  occ. eigenvalues --   -0.46088  -0.44264
 Alpha virt. eigenvalues --   -0.26088  -0.14670  -0.14091  -0.12770  -0.11183
 Alpha virt. eigenvalues --   -0.10090  -0.09238  -0.07976  -0.07955  -0.07478
 Alpha virt. eigenvalues --   -0.07207  -0.07144  -0.05643  -0.05580  -0.05339

 Mulliken charges:
               1
     1  C    0.105385
     2  C   -0.410401
     3  C   -0.442420
     4  C    0.007484
     5  C    0.027005
     6  C   -0.436811
     7  C   -0.403883
     8  C    0.081572
     9  C   -0.331051
    10  C    0.093754
    11  C   -0.624968
    12  C    0.666706
    13  C   -0.648704
    14  C    0.696481
    15  H    0.235949
    16  H    0.254096
    17  H    0.247144
    18  H    0.220149
    19  H    0.190098
    20  H    0.223890
    21  H    0.250732
    22  H    0.258608
    23  H    0.238518
    24  H    0.250333
    25  H    0.250333
 Sum of Mulliken charges =   1.00000

 Dipole moment (field-independent basis, Debye):
    X=              0.1025    Y=             -0.5793    Z=             -0.0000  Tot=              0.5883
 Quadrupole moment (field-independent basis, Debye-Ang):
   XX=            -50.9364   YY=            -36.4263   ZZ=            -84.1387
   XY=            -10.2838   XZ=             -0.0000   YZ=             -0.0000

 Normal termination of Gaussian 16 at Wed Jul 27 11:29:45 2022.
