 Gaussian 16, Revision C.01,
 Gaussian 16:  ES64L-G16RevC.01  3-Jul-2019

 ---------------------------------------------------------------
 #n M062X/6-311++G(d,p) TD(NStates=1) EmpiricalDispersion=GD3 SP
 ---------------------------------------------------------------

 ------
 SP_-50
 ------
 Symbolic Z-matrix:
 Charge =  1 Multiplicity = 1

                         Standard orientation:
 ---------------------------------------------------------------------
 Center     Atomic      Atomic             Coordinates (Angstroms)
 Number     Number       Type             X           Y           Z
 ---------------------------------------------------------------------
      1          6           0       -2.360768   -1.548579    0.000000
      2          6           0       -2.306242   -2.940259    0.000000
      3          6           0       -1.074331   -3.592984    0.000000
      4          6           0        0.091452   -2.863215    0.000000
      5          6           0        2.373859    1.502763    0.000000
      6          6           0        2.342597    2.935363    0.000000
      7          6           0        1.141513    3.611986    0.000000
      8          6           0       -0.024182    2.857500    0.000000
      9          6           0       -1.280326    0.692634    0.000000
     10          6           0        1.245562   -0.702003    0.000000
     11          6           0       -1.202150   -0.798265    0.000000
     12          6           0        0.060628   -1.449973    0.000000
     13          6           0        0.000000    1.421578    0.000000
     14          6           0        1.216026    0.738340    0.000000
     15          1           0       -3.322282   -1.050214    0.000000
     16          1           0       -3.222485   -3.513040    0.000000
     17          1           0       -1.036115   -4.673066    0.000000
     18          1           0        1.051536   -3.362464    0.000000
     19          1           0        2.202143   -1.205620    0.000000
     20          1           0        3.338445    1.010409    0.000000
     21          1           0        3.281259    3.472386    0.000000
     22          1           0        1.104602    4.690472    0.000000
     23          1           0       -0.990261    3.348212    0.000000
     24          1           0       -1.874332    1.046806    0.860150
     25          1           0       -1.874332    1.046806   -0.860150
 ---------------------------------------------------------------------

 SCF Done:  E(RM062X) =  -539.756331665     A.U. after   15 cycles

 Excitation energies and oscillator strengths:

 Excited State   1:      Singlet-A'     2.7167 eV  456.38 nm  f=0.0217  <S**2>=0.000
      47 -> 48         0.70361
 This state for optimization and/or second-order correction.
 Total Energy, E(TD-HF/TD-DFT) =  -539.656494715
 Copying the excited state density for this state as the 1-particle RhoCI density.

 The electronic state is 1-A'.
 Alpha  occ. eigenvalues --  -10.77620 -10.73679 -10.72813 -10.72764 -10.72066
 Alpha  occ. eigenvalues --  -10.71796 -10.71763 -10.70990 -10.70944 -10.70256
 Alpha  occ. eigenvalues --  -10.70169 -10.69877 -10.69777 -10.69388  -1.16492
 Alpha  occ. eigenvalues --   -1.12463  -1.06940  -1.05786  -1.01296  -1.00317
 Alpha  occ. eigenvalues --   -0.95647  -0.91035  -0.86432  -0.85891  -0.83790
 Alpha  occ. eigenvalues --   -0.78356  -0.76087  -0.74384  -0.69708  -0.69291
 Alpha  occ. eigenvalues --   -0.68375  -0.68107  -0.68097  -0.65087  -0.64241
 Alpha  occ. eigenvalues --   -0.62835  -0.61692  -0.60336  -0.59371  -0.59139
 Alpha  occ. eigenvalues --   -0.56922  -0.55258  -0.54641  -0.52441  -0.47060
 Alpha  occ. eigenvalues --   -0.46110  -0.44037
 Alpha virt. eigenvalues --   -0.26103  -0.14667  -0.14085  -0.12767  -0.11185
 Alpha virt. eigenvalues --   -0.10089  -0.09248  -0.07969  -0.07945  -0.07481
 Alpha virt. eigenvalues --   -0.07207  -0.07138  -0.05646  -0.05576  -0.05344

 Mulliken charges:
               1
     1  C    0.076112
     2  C   -0.402296
     3  C   -0.434520
     4  C    0.024338
     5  C   -0.003256
     6  C   -0.443590
     7  C   -0.411772
     8  C    0.110453
     9  C   -0.343975
    10  C    0.084849
    11  C   -0.650990
    12  C    0.713746
    13  C   -0.611077
    14  C    0.672654
    15  H    0.239417
    16  H    0.259656
    17  H    0.251563
    18  H    0.224824
    19  H    0.189922
    20  H    0.219354
    21  H    0.246200
    22  H    0.252888
    23  H    0.235595
    24  H    0.249953
    25  H    0.249953
 Sum of Mulliken charges =   1.00000

 Dipole moment (field-independent basis, Debye):
    X=             -0.2337    Y=             -0.8247    Z=             -0.0000  Tot=              0.8572
 Quadrupole moment (field-independent basis, Debye-Ang):
   XX=            -51.0802   YY=            -36.2347   ZZ=            -84.1361
   XY=             10.2129   XZ=             -0.0000   YZ=             -0.0000

 Normal termination of Gaussian 16 at Wed Jul 27 10:51:58 2022.
