 Gaussian 16, Revision C.01,
 Gaussian 16:  ES64L-G16RevC.01  3-Jul-2019

 ---------------------------------------------------------------
 #n M062X/6-311++G(d,p) TD(NStates=1) EmpiricalDispersion=GD3 SP
 ---------------------------------------------------------------

 ------
 SP_100
 ------
 Symbolic Z-matrix:
 Charge =  1 Multiplicity = 1

                         Standard orientation:
 ---------------------------------------------------------------------
 Center     Atomic      Atomic             Coordinates (Angstroms)
 Number     Number       Type             X           Y           Z
 ---------------------------------------------------------------------
      1          6           0        0.023089    2.854999    0.000000
      2          6           0       -1.144448    3.606808    0.000000
      3          6           0       -2.347629    2.930998    0.000000
      4          6           0       -2.379076    1.503203    0.000000
      5          6           0       -0.088912   -2.858742    0.000000
      6          6           0        1.080471   -3.591795    0.000000
      7          6           0        2.312218   -2.941267    0.000000
      8          6           0        2.363605   -1.550069    0.000000
      9          6           0        1.281718    0.692337    0.000000
     10          6           0       -1.247913   -0.697614    0.000000
     11          6           0        0.000000    1.423404    0.000000
     12          6           0       -1.218023    0.739403    0.000000
     13          6           0        1.200696   -0.797275    0.000000
     14          6           0       -0.060327   -1.447468    0.000000
     15          1           0        0.987556    3.348673    0.000000
     16          1           0       -1.108257    4.685430    0.000000
     17          1           0       -3.284810    3.470290    0.000000
     18          1           0       -3.342156    1.008143    0.000000
     19          1           0       -2.203820   -1.202453    0.000000
     20          1           0       -1.047688   -3.360575    0.000000
     21          1           0        1.039368   -4.671723    0.000000
     22          1           0        3.228620   -3.513555    0.000000
     23          1           0        3.323638   -1.048843    0.000000
     24          1           0        1.877368    1.041537    0.860425
     25          1           0        1.877368    1.041537   -0.860425
 ---------------------------------------------------------------------

 SCF Done:  E(RM062X) =  -539.757534838     A.U. after   15 cycles

 Excitation energies and oscillator strengths:

 Excited State   1:      Singlet-A'     2.7448 eV  451.70 nm  f=0.0231  <S**2>=0.000
      47 -> 48         0.70370
 This state for optimization and/or second-order correction.
 Total Energy, E(TD-HF/TD-DFT) =  -539.656664181
 Copying the excited state density for this state as the 1-particle RhoCI density.

 The electronic state is 1-A'.
 Alpha  occ. eigenvalues --  -10.77638 -10.73616 -10.72894 -10.72716 -10.72134
 Alpha  occ. eigenvalues --  -10.71701 -10.71660 -10.71018 -10.70992 -10.70375
 Alpha  occ. eigenvalues --  -10.70136 -10.69838 -10.69810 -10.69430  -1.16467
 Alpha  occ. eigenvalues --   -1.12457  -1.06942  -1.05752  -1.01301  -1.00266
 Alpha  occ. eigenvalues --   -0.95688  -0.91037  -0.86427  -0.85890  -0.83795
 Alpha  occ. eigenvalues --   -0.78367  -0.76060  -0.74393  -0.69671  -0.69275
 Alpha  occ. eigenvalues --   -0.68408  -0.68128  -0.68102  -0.64993  -0.64245
 Alpha  occ. eigenvalues --   -0.62881  -0.61743  -0.60269  -0.59438  -0.59127
 Alpha  occ. eigenvalues --   -0.56910  -0.55251  -0.54689  -0.52441  -0.46933
 Alpha  occ. eigenvalues --   -0.46101  -0.44165
 Alpha virt. eigenvalues --   -0.26102  -0.14666  -0.14089  -0.12770  -0.11183
 Alpha virt. eigenvalues --   -0.10087  -0.09242  -0.07973  -0.07955  -0.07479
 Alpha virt. eigenvalues --   -0.07204  -0.07140  -0.05645  -0.05577  -0.05340

 Mulliken charges:
               1
     1  C    0.107004
     2  C   -0.410720
     3  C   -0.443157
     4  C   -0.002047
     5  C    0.020803
     6  C   -0.435505
     7  C   -0.402927
     8  C    0.078468
     9  C   -0.345197
    10  C    0.084931
    11  C   -0.614642
    12  C    0.678910
    13  C   -0.648092
    14  C    0.713049
    15  H    0.235923
    16  H    0.253429
    17  H    0.246630
    18  H    0.219794
    19  H    0.190119
    20  H    0.224349
    21  H    0.251101
    22  H    0.259079
    23  H    0.239122
    24  H    0.249787
    25  H    0.249787
 Sum of Mulliken charges =   1.00000

 Dipole moment (field-independent basis, Debye):
    X=              0.1657    Y=             -0.7036    Z=              0.0000  Tot=              0.7229
 Quadrupole moment (field-independent basis, Debye-Ang):
   XX=            -51.0087   YY=            -36.3193   ZZ=            -84.1382
   XY=            -10.2566   XZ=             -0.0000   YZ=             -0.0000

 Normal termination of Gaussian 16 at Wed Jul 27 12:20:54 2022.
