 Gaussian 16, Revision C.01,
 Gaussian 16:  ES64L-G16RevC.01  3-Jul-2019

 ---------------------------------------------------------------
 #n M062X/6-311++G(d,p) TD(NStates=1) EmpiricalDispersion=GD3 SP
 ---------------------------------------------------------------

 -----
 SP_50
 -----
 Symbolic Z-matrix:
 Charge =  1 Multiplicity = 1

                         Standard orientation:
 ---------------------------------------------------------------------
 Center     Atomic      Atomic             Coordinates (Angstroms)
 Number     Number       Type             X           Y           Z
 ---------------------------------------------------------------------
      1          6           0        0.024457    2.853599    0.000000
      2          6           0       -1.143761    3.606108    0.000000
      3          6           0       -2.346519    2.930890    0.000000
      4          6           0       -2.378880    1.503160    0.000000
      5          6           0       -0.088728   -2.858564    0.000000
      6          6           0        1.081140   -3.590779    0.000000
      7          6           0        2.312137   -2.940223    0.000000
      8          6           0        2.363273   -1.548068    0.000000
      9          6           0        1.277796    0.690338    0.000000
     10          6           0       -1.247723   -0.697547    0.000000
     11          6           0        0.000000    1.423245    0.000000
     12          6           0       -1.218489    0.739590    0.000000
     13          6           0        1.200597   -0.797147    0.000000
     14          6           0       -0.060377   -1.447966    0.000000
     15          1           0        0.989099    3.347050    0.000000
     16          1           0       -1.107142    4.684742    0.000000
     17          1           0       -3.283630    3.470546    0.000000
     18          1           0       -3.342183    1.008412    0.000000
     19          1           0       -2.203709   -1.202450    0.000000
     20          1           0       -1.047351   -3.360792    0.000000
     21          1           0        1.040419   -4.670856    0.000000
     22          1           0        3.228810   -3.512130    0.000000
     23          1           0        3.323200   -1.046536    0.000000
     24          1           0        1.876466    1.041100    0.859325
     25          1           0        1.876466    1.041100   -0.859325
 ---------------------------------------------------------------------

 SCF Done:  E(RM062X) =  -539.757482411     A.U. after   15 cycles

 Excitation energies and oscillator strengths:

 Excited State   1:      Singlet-A'     2.7454 eV  451.60 nm  f=0.0233  <S**2>=0.000
      47 -> 48         0.70369
 This state for optimization and/or second-order correction.
 Total Energy, E(TD-HF/TD-DFT) =  -539.656589257
 Copying the excited state density for this state as the 1-particle RhoCI density.

 The electronic state is 1-A'.
 Alpha  occ. eigenvalues --  -10.77629 -10.73589 -10.72869 -10.72707 -10.72125
 Alpha  occ. eigenvalues --  -10.71699 -10.71664 -10.71015 -10.70978 -10.70379
 Alpha  occ. eigenvalues --  -10.70135 -10.69832 -10.69809 -10.69423  -1.16492
 Alpha  occ. eigenvalues --   -1.12474  -1.06941  -1.05793  -1.01302  -1.00295
 Alpha  occ. eigenvalues --   -0.95685  -0.91048  -0.86430  -0.85899  -0.83803
 Alpha  occ. eigenvalues --   -0.78372  -0.76083  -0.74396  -0.69661  -0.69280
 Alpha  occ. eigenvalues --   -0.68416  -0.68138  -0.68094  -0.65002  -0.64255
 Alpha  occ. eigenvalues --   -0.62911  -0.61751  -0.60252  -0.59437  -0.59122
 Alpha  occ. eigenvalues --   -0.56922  -0.55249  -0.54704  -0.52438  -0.46946
 Alpha  occ. eigenvalues --   -0.46099  -0.44155
 Alpha virt. eigenvalues --   -0.26093  -0.14669  -0.14088  -0.12768  -0.11184
 Alpha virt. eigenvalues --   -0.10090  -0.09242  -0.07973  -0.07949  -0.07480
 Alpha virt. eigenvalues --   -0.07208  -0.07142  -0.05644  -0.05579  -0.05342

 Mulliken charges:
               1
     1  C    0.108333
     2  C   -0.411224
     3  C   -0.442954
     4  C    0.003398
     5  C    0.027392
     6  C   -0.435788
     7  C   -0.403151
     8  C    0.078899
     9  C   -0.334804
    10  C    0.091002
    11  C   -0.619668
    12  C    0.666503
    13  C   -0.650466
    14  C    0.702794
    15  H    0.235716
    16  H    0.253512
    17  H    0.246684
    18  H    0.219724
    19  H    0.189991
    20  H    0.224364
    21  H    0.251163
    22  H    0.259150
    23  H    0.238917
    24  H    0.250256
    25  H    0.250256
 Sum of Mulliken charges =   1.00000

 Dipole moment (field-independent basis, Debye):
    X=              0.1688    Y=             -0.7017    Z=              0.0000  Tot=              0.7218
 Quadrupole moment (field-independent basis, Debye-Ang):
   XX=            -51.0085   YY=            -36.3360   ZZ=            -84.1373
   XY=            -10.2445   XZ=              0.0000   YZ=              0.0000

 Normal termination of Gaussian 16 at Wed Jul 27 11:45:25 2022.
