 Gaussian 16, Revision C.01,
 Gaussian 16:  ES64L-G16RevC.01  3-Jul-2019

 ---------------------------------------------------------------
 #n M062X/6-311++G(d,p) TD(NStates=1) EmpiricalDispersion=GD3 SP
 ---------------------------------------------------------------

 ----
 SP_0
 ----
 Symbolic Z-matrix:
 Charge =  1 Multiplicity = 1

                         Standard orientation:
 ---------------------------------------------------------------------
 Center     Atomic      Atomic             Coordinates (Angstroms)
 Number     Number       Type             X           Y           Z
 ---------------------------------------------------------------------
      1          6           0        0.023670    2.847197    0.000000
      2          6           0       -1.148900    3.595046    0.000000
      3          6           0       -2.355441    2.922041    0.000000
      4          6           0       -2.389116    1.503979    0.000000
      5          6           0       -0.083495   -2.849438    0.000000
      6          6           0        1.094071   -3.587370    0.000000
      7          6           0        2.324007   -2.941187    0.000000
      8          6           0        2.368618   -1.549054    0.000000
      9          6           0        1.276628    0.687818    0.000000
     10          6           0       -1.252261   -0.688715    0.000000
     11          6           0        0.000000    1.426735    0.000000
     12          6           0       -1.222951    0.741893    0.000000
     13          6           0        1.197587   -0.795058    0.000000
     14          6           0       -0.059838   -1.443460    0.000000
     15          1           0        0.985256    3.346339    0.000000
     16          1           0       -1.113289    4.673965    0.000000
     17          1           0       -3.289531    3.466610    0.000000
     18          1           0       -3.349622    1.004139    0.000000
     19          1           0       -2.206976   -1.196121    0.000000
     20          1           0       -1.039341   -3.357220    0.000000
     21          1           0        1.047952   -4.667302    0.000000
     22          1           0        3.241263   -3.511730    0.000000
     23          1           0        3.325465   -1.041503    0.000000
     24          1           0        1.881676    1.030127    0.858775
     25          1           0        1.881676    1.030127   -0.858775
 ---------------------------------------------------------------------

 SCF Done:  E(RM062X) =  -539.759182285     A.U. after   15 cycles

 Excitation energies and oscillator strengths:

 Excited State   1:      Singlet-A'     2.7920 eV  444.07 nm  f=0.0264  <S**2>=0.000
      47 -> 48         0.70395
 This state for optimization and/or second-order correction.
 Total Energy, E(TD-HF/TD-DFT) =  -539.656577654
 Copying the excited state density for this state as the 1-particle RhoCI density.

 The electronic state is 1-A'.
 Alpha  occ. eigenvalues --  -10.77648 -10.73435 -10.73003 -10.72598 -10.72248
 Alpha  occ. eigenvalues --  -10.71569 -10.71399 -10.71157 -10.70970 -10.70627
 Alpha  occ. eigenvalues --  -10.70069 -10.69874 -10.69748 -10.69501  -1.16477
 Alpha  occ. eigenvalues --   -1.12480  -1.06944  -1.05779  -1.01310  -1.00245
 Alpha  occ. eigenvalues --   -0.95743  -0.91060  -0.86425  -0.85906  -0.83817
 Alpha  occ. eigenvalues --   -0.78392  -0.76063  -0.74412  -0.69592  -0.69262
 Alpha  occ. eigenvalues --   -0.68476  -0.68179  -0.68093  -0.64850  -0.64276
 Alpha  occ. eigenvalues --   -0.63025  -0.61828  -0.60106  -0.59567  -0.59099
 Alpha  occ. eigenvalues --   -0.56915  -0.55228  -0.54796  -0.52436  -0.46757
 Alpha  occ. eigenvalues --   -0.46077  -0.44355
 Alpha virt. eigenvalues --   -0.26083  -0.14671  -0.14093  -0.12771  -0.11181
 Alpha virt. eigenvalues --   -0.10090  -0.09235  -0.07979  -0.07959  -0.07478
 Alpha virt. eigenvalues --   -0.07207  -0.07145  -0.05642  -0.05582  -0.05337

 Mulliken charges:
               1
     1  C    0.102378
     2  C   -0.409562
     3  C   -0.441866
     4  C    0.011642
     5  C    0.026498
     6  C   -0.437752
     7  C   -0.404621
     8  C    0.084313
     9  C   -0.327541
    10  C    0.096172
    11  C   -0.629703
    12  C    0.667027
    13  C   -0.646855
    14  C    0.689892
    15  H    0.236189
    16  H    0.254682
    17  H    0.247605
    18  H    0.220587
    19  H    0.190176
    20  H    0.223414
    21  H    0.250299
    22  H    0.258066
    23  H    0.238122
    24  H    0.250419
    25  H    0.250419
 Sum of Mulliken charges =   1.00000

 Dipole moment (field-independent basis, Debye):
    X=              0.0363    Y=             -0.4565    Z=             -0.0000  Tot=              0.4579
 Quadrupole moment (field-independent basis, Debye-Ang):
   XX=            -50.8638   YY=            -36.5141   ZZ=            -84.1397
   XY=            -10.3245   XZ=             -0.0000   YZ=              0.0000

 Normal termination of Gaussian 16 at Wed Jul 27 11:14:49 2022.
