 Gaussian 16, Revision C.01,
 Gaussian 16:  ES64L-G16RevC.01  3-Jul-2019

 ---------------------------------------------------------------
 #n M062X/6-311++G(d,p) TD(NStates=1) EmpiricalDispersion=GD3 SP
 ---------------------------------------------------------------

 ------
 SP_-25
 ------
 Symbolic Z-matrix:
 Charge =  1 Multiplicity = 1

                         Standard orientation:
 ---------------------------------------------------------------------
 Center     Atomic      Atomic             Coordinates (Angstroms)
 Number     Number       Type             X           Y           Z
 ---------------------------------------------------------------------
      1          6           0        2.488684   -1.371515    0.000000
      2          6           0        3.701849   -0.690092    0.000000
      3          6           0        3.687548    0.693958    0.000000
      4          6           0        2.465198    1.394488    0.000000
      5          6           0       -2.460986    1.420390    0.000000
      6          6           0       -3.679256    0.732090    0.000000
      7          6           0       -3.699641   -0.654485    0.000000
      8          6           0       -2.493820   -1.350218    0.000000
      9          6           0       -0.004155   -1.450111    0.000000
     10          6           0        0.000000    1.429048    0.000000
     11          6           0        1.258043   -0.680524    0.000000
     12          6           0        1.238361    0.725349    0.000000
     13          6           0       -1.265925   -0.673409    0.000000
     14          6           0       -1.237213    0.736680    0.000000
     15          1           0        2.476789   -2.454749    0.000000
     16          1           0        4.634701   -1.233816    0.000000
     17          1           0        4.613724    1.251574    0.000000
     18          1           0        2.476566    2.477049    0.000000
     19          1           0        0.005161    2.510211    0.000000
     20          1           0       -2.458819    2.502866    0.000000
     21          1           0       -4.604340    1.291305    0.000000
     22          1           0       -4.637074   -1.190752    0.000000
     23          1           0       -2.496065   -2.433419    0.000000
     24          1           0       -0.001392   -2.145079    0.858775
     25          1           0       -0.001392   -2.145079   -0.858775
 ---------------------------------------------------------------------

 SCF Done:  E(RM062X) =  -539.760072744     A.U. after   15 cycles

 Excitation energies and oscillator strengths:

 Excited State   1:      Singlet-A'     2.8188 eV  439.85 nm  f=0.0285  <S**2>=0.000
      47 -> 48         0.70422
 This state for optimization and/or second-order correction.
 Total Energy, E(TD-HF/TD-DFT) =  -539.656483930
 Copying the excited state density for this state as the 1-particle RhoCI density.

 The electronic state is 1-A'.
 Alpha  occ. eigenvalues --  -10.77659 -10.73293 -10.73148 -10.72487 -10.72370
 Alpha  occ. eigenvalues --  -10.71436 -10.71298 -10.71137 -10.70970 -10.70879
 Alpha  occ. eigenvalues --  -10.70004 -10.69938 -10.69666 -10.69584  -1.16463
 Alpha  occ. eigenvalues --   -1.12479  -1.06945  -1.05762  -1.01314  -1.00211
 Alpha  occ. eigenvalues --   -0.95775  -0.91063  -0.86422  -0.85908  -0.83823
 Alpha  occ. eigenvalues --   -0.78401  -0.76047  -0.74419  -0.69556  -0.69251
 Alpha  occ. eigenvalues --   -0.68506  -0.68199  -0.68095  -0.64756  -0.64291
 Alpha  occ. eigenvalues --   -0.63084  -0.61864  -0.59999  -0.59670  -0.59088
 Alpha  occ. eigenvalues --   -0.56908  -0.55213  -0.54845  -0.52436  -0.46650
 Alpha  occ. eigenvalues --   -0.46060  -0.44474
 Alpha virt. eigenvalues --   -0.26081  -0.14671  -0.14095  -0.12772  -0.11180
 Alpha virt. eigenvalues --   -0.10089  -0.09230  -0.07983  -0.07965  -0.07476
 Alpha virt. eigenvalues --   -0.07206  -0.07147  -0.05642  -0.05583  -0.05334

 Mulliken charges:
               1
     1  C    0.096503
     2  C   -0.407715
     3  C   -0.440783
     4  C    0.016742
     5  C    0.021799
     6  C   -0.439412
     7  C   -0.406035
     8  C    0.090555
     9  C   -0.326600
    10  C    0.097290
    11  C   -0.635722
    12  C    0.673551
    13  C   -0.641379
    14  C    0.681229
    15  H    0.236802
    16  H    0.255811
    17  H    0.248499
    18  H    0.221511
    19  H    0.190305
    20  H    0.222456
    21  H    0.249397
    22  H    0.256941
    23  H    0.237446
    24  H    0.250406
    25  H    0.250406
 Sum of Mulliken charges =   1.00000

 Dipole moment (field-independent basis, Debye):
    X=             -0.1392    Y=              0.1856    Z=              0.0000  Tot=              0.2320
 Quadrupole moment (field-independent basis, Debye-Ang):
   XX=            -31.1338   YY=            -56.2564   ZZ=            -84.1413
   XY=             -0.1767   XZ=             -0.0000   YZ=             -0.0000

 Normal termination of Gaussian 16 at Wed Jul 27 10:59:06 2022.
