 Gaussian 16, Revision C.01,
 Gaussian 16:  ES64L-G16RevC.01  3-Jul-2019

 ---------------------------------------------------------------
 #n M062X/6-311++G(d,p) TD(NStates=1) EmpiricalDispersion=GD3 SP
 ---------------------------------------------------------------

 -------
 SP_-100
 -------
 Symbolic Z-matrix:
 Charge =  1 Multiplicity = 1

                         Standard orientation:
 ---------------------------------------------------------------------
 Center     Atomic      Atomic             Coordinates (Angstroms)
 Number     Number       Type             X           Y           Z
 ---------------------------------------------------------------------
      1          6           0       -2.371111   -1.548548    0.000000
      2          6           0       -2.329882   -2.941141    0.000000
      3          6           0       -1.100840   -3.585142    0.000000
      4          6           0        0.080822   -2.844773    0.000000
      5          6           0        2.394136    1.504379    0.000000
      6          6           0        2.359324    2.917578    0.000000
      7          6           0        1.151094    3.589179    0.000000
      8          6           0       -0.023984    2.843308    0.000000
      9          6           0       -1.274161    0.685421    0.000000
     10          6           0        1.254457   -0.684256    0.000000
     11          6           0       -1.196021   -0.793954    0.000000
     12          6           0        0.059612   -1.441448    0.000000
     13          6           0        0.000000    1.428411    0.000000
     14          6           0        1.225420    0.743148    0.000000
     15          1           0       -3.326362   -1.037844    0.000000
     16          1           0       -3.247560   -3.510817    0.000000
     17          1           0       -1.052206   -4.665084    0.000000
     18          1           0        1.035199   -3.355520    0.000000
     19          1           0        2.208576   -1.192939    0.000000
     20          1           0        3.353351    1.002157    0.000000
     21          1           0        3.291874    3.464797    0.000000
     22          1           0        1.115768    4.668246    0.000000
     23          1           0       -0.984126    3.345175    0.000000
     24          1           0       -1.883849    1.024426    0.857950
     25          1           0       -1.883849    1.024426   -0.857950
 ---------------------------------------------------------------------

 SCF Done:  E(RM062X) =  -539.759655966     A.U. after   15 cycles

 Excitation energies and oscillator strengths:

 Excited State   1:      Singlet-A'     2.8082 eV  441.51 nm  f=0.0278  <S**2>=0.000
      47 -> 48         0.70410
 This state for optimization and/or second-order correction.
 Total Energy, E(TD-HF/TD-DFT) =  -539.656457096
 Copying the excited state density for this state as the 1-particle RhoCI density.

 The electronic state is 1-A'.
 Alpha  occ. eigenvalues --  -10.77648 -10.73344 -10.73057 -10.72536 -10.72303
 Alpha  occ. eigenvalues --  -10.71501 -10.71270 -10.71226 -10.70959 -10.70756
 Alpha  occ. eigenvalues --  -10.70035 -10.69906 -10.69702 -10.69537  -1.16488
 Alpha  occ. eigenvalues --   -1.12492  -1.06944  -1.05800  -1.01313  -1.00246
 Alpha  occ. eigenvalues --   -0.95760  -0.91070  -0.86426  -0.85914  -0.83827
 Alpha  occ. eigenvalues --   -0.78401  -0.76071  -0.74419  -0.69561  -0.69260
 Alpha  occ. eigenvalues --   -0.68501  -0.68199  -0.68089  -0.64798  -0.64293
 Alpha  occ. eigenvalues --   -0.63089  -0.61853  -0.60028  -0.59630  -0.59087
 Alpha  occ. eigenvalues --   -0.56921  -0.55214  -0.54840  -0.52434  -0.46702
 Alpha  occ. eigenvalues --   -0.46067  -0.44418
 Alpha virt. eigenvalues --   -0.26075  -0.14673  -0.14094  -0.12770  -0.11182
 Alpha virt. eigenvalues --   -0.10092  -0.09232  -0.07981  -0.07959  -0.07477
 Alpha virt. eigenvalues --   -0.07209  -0.07147  -0.05641  -0.05583  -0.05337

 Mulliken charges:
               1
     1  C    0.086939
     2  C   -0.405328
     3  C   -0.438688
     4  C    0.029300
     5  C    0.019110
     6  C   -0.441255
     7  C   -0.408646
     8  C    0.099447
     9  C   -0.318985
    10  C    0.100980
    11  C   -0.645728
    12  C    0.676860
    13  C   -0.635136
    14  C    0.660687
    15  H    0.237616
    16  H    0.257563
    17  H    0.249896
    18  H    0.222939
    19  H    0.190163
    20  H    0.221024
    21  H    0.248098
    22  H    0.255311
    23  H    0.236319
    24  H    0.250756
    25  H    0.250756
 Sum of Mulliken charges =   1.00000

 Dipole moment (field-independent basis, Debye):
    X=              0.0281    Y=             -0.3324    Z=             -0.0000  Tot=              0.3336
 Quadrupole moment (field-independent basis, Debye-Ang):
   XX=            -50.7907   YY=            -36.6076   ZZ=            -84.1399
   XY=             10.3607   XZ=              0.0000   YZ=             -0.0000

 Normal termination of Gaussian 16 at Wed Jul 27 10:10:02 2022.
