 Gaussian 16, Revision C.01,
 Gaussian 16:  ES64L-G16RevC.01  3-Jul-2019

 ---------------------------------------------------------------
 #n M062X/6-311++G(d,p) TD(NStates=1) EmpiricalDispersion=GD3 SP
 ---------------------------------------------------------------

 ------
 SP_-75
 ------
 Symbolic Z-matrix:
 Charge =  1 Multiplicity = 1

                         Standard orientation:
 ---------------------------------------------------------------------
 Center     Atomic      Atomic             Coordinates (Angstroms)
 Number     Number       Type             X           Y           Z
 ---------------------------------------------------------------------
      1          6           0       -1.361314   -2.489845    0.000000
      2          6           0       -0.672539   -3.700070    0.000000
      3          6           0        0.712286   -3.682995    0.000000
      4          6           0        1.407286   -2.463045    0.000000
      5          6           0        1.407286    2.463055    0.000000
      6          6           0        0.712286    3.683005    0.000000
      7          6           0       -0.672539    3.700080    0.000000
      8          6           0       -1.361314    2.489855    0.000000
      9          6           0       -1.446814   -0.000070    0.000000
     10          6           0        1.428886    0.000005    0.000000
     11          6           0       -0.676939   -1.261870    0.000000
     12          6           0        0.731236   -1.238095    0.000000
     13          6           0       -0.676939    1.261880    0.000000
     14          6           0        0.731236    1.238105    0.000000
     15          1           0       -2.444589   -2.484795    0.000000
     16          1           0       -1.212839   -4.635070    0.000000
     17          1           0        1.270511   -4.608845    0.000000
     18          1           0        2.489861   -2.467945    0.000000
     19          1           0        2.510136    0.000005    0.000000
     20          1           0        2.489861    2.467955    0.000000
     21          1           0        1.270511    4.608855    0.000000
     22          1           0       -1.212839    4.635080    0.000000
     23          1           0       -2.444589    2.484805    0.000000
     24          1           0       -2.144314    0.000005    0.857950
     25          1           0       -2.144314    0.000005   -0.857950
 ---------------------------------------------------------------------

 SCF Done:  E(RM062X) =  -539.760114062     A.U. after   15 cycles

 Excitation energies and oscillator strengths:

 Excited State   1:      Singlet-A'     2.8220 eV  439.35 nm  f=0.0290  <S**2>=0.000
      47 -> 48         0.70426
 This state for optimization and/or second-order correction.
 Total Energy, E(TD-HF/TD-DFT) =  -539.656407668
 Copying the excited state density for this state as the 1-particle RhoCI density.

 The electronic state is 1-A'.
 Alpha  occ. eigenvalues --  -10.77653 -10.73202 -10.73201 -10.72423 -10.72422
 Alpha  occ. eigenvalues --  -10.71365 -10.71365 -10.71010 -10.71010 -10.70960
 Alpha  occ. eigenvalues --  -10.69970 -10.69970 -10.69620 -10.69620  -1.16481
 Alpha  occ. eigenvalues --   -1.12491  -1.06945  -1.05791  -1.01315  -1.00229
 Alpha  occ. eigenvalues --   -0.95776  -0.91071  -0.86424  -0.85915  -0.83829
 Alpha  occ. eigenvalues --   -0.78405  -0.76063  -0.74422  -0.69543  -0.69254
 Alpha  occ. eigenvalues --   -0.68517  -0.68209  -0.68090  -0.64748  -0.64302
 Alpha  occ. eigenvalues --   -0.63121  -0.61871  -0.59959  -0.59698  -0.59082
 Alpha  occ. eigenvalues --   -0.56917  -0.55205  -0.54866  -0.52434  -0.46648
 Alpha  occ. eigenvalues --   -0.46057  -0.44479
 Alpha virt. eigenvalues --   -0.26074  -0.14673  -0.14095  -0.12771  -0.11181
 Alpha virt. eigenvalues --   -0.10091  -0.09230  -0.07983  -0.07962  -0.07477
 Alpha virt. eigenvalues --   -0.07209  -0.07148  -0.05641  -0.05584  -0.05335

 Mulliken charges:
               1
     1  C    0.093453
     2  C   -0.406832
     3  C   -0.440155
     4  C    0.024281
     5  C    0.024314
     6  C   -0.440153
     7  C   -0.406785
     8  C    0.093521
     9  C   -0.318542
    10  C    0.101532
    11  C   -0.640308
    12  C    0.667739
    13  C   -0.640220
    14  C    0.667694
    15  H    0.236950
    16  H    0.256439
    17  H    0.248993
    18  H    0.221973
    19  H    0.190231
    20  H    0.221973
    21  H    0.248994
    22  H    0.256438
    23  H    0.236948
    24  H    0.250761
    25  H    0.250761
 Sum of Mulliken charges =   1.00000

 Dipole moment (field-independent basis, Debye):
    X=              0.1825    Y=              0.0000    Z=              0.0000  Tot=              0.1825
 Quadrupole moment (field-independent basis, Debye-Ang):
   XX=            -56.2523   YY=            -31.1521   ZZ=            -84.1407
   XY=             -0.0001   XZ=              0.0000   YZ=              0.0000

 Normal termination of Gaussian 16 at Wed Jul 27 10:24:57 2022.
