 Gaussian 16, Revision C.01,
 Gaussian 16:  ES64L-G16RevC.01  3-Jul-2019

 ---------------------------------------------------------------
 #n M062X/6-311++G(d,p) TD(NStates=1) EmpiricalDispersion=GD3 SP
 ---------------------------------------------------------------

 ------
 SP_-75
 ------
 Symbolic Z-matrix:
 Charge =  1 Multiplicity = 1

                         Standard orientation:
 ---------------------------------------------------------------------
 Center     Atomic      Atomic             Coordinates (Angstroms)
 Number     Number       Type             X           Y           Z
 ---------------------------------------------------------------------
      1          6           0        0.099032   -2.815918    0.000000
      2          6           0        1.320500   -3.486605    0.000000
      3          6           0        2.522051   -2.774264    0.000000
      4          6           0        2.504997   -1.408577    0.000000
      5          6           0       -0.056542    2.799778    0.000000
      6          6           0       -1.305002    3.522517    0.000000
      7          6           0       -2.506450    2.851669    0.000000
      8          6           0       -2.460443    1.464532    0.000000
      9          6           0       -1.257575   -0.733216    0.000000
     10          6           0        1.251800    0.691593    0.000000
     11          6           0        0.058351   -1.445465    0.000000
     12          6           0        1.275102   -0.702929    0.000000
     13          6           0       -1.211929    0.736202    0.000000
     14          6           0        0.000000    1.417869    0.000000
     15          1           0       -0.822626   -3.384580    0.000000
     16          1           0        1.335593   -4.567286    0.000000
     17          1           0        3.462322   -3.307252    0.000000
     18          1           0        3.426936   -0.842136    0.000000
     19          1           0        2.177414    1.250094    0.000000
     20          1           0        0.862044    3.373767    0.000000
     21          1           0       -1.271067    4.603699    0.000000
     22          1           0       -3.447760    3.378849    0.000000
     23          1           0       -3.378046    0.887926    0.000000
     24          1           0       -1.874081   -1.048091    0.860150
     25          1           0       -1.874081   -1.048091   -0.860150
 ---------------------------------------------------------------------

 SCF Done:  E(RM062X) =  -539.753298298     A.U. after   15 cycles

 Excitation energies and oscillator strengths:

 Excited State   1:      Singlet-A'     2.6542 eV  467.13 nm  f=0.0192  <S**2>=0.000
      47 -> 48         0.70350
 This state for optimization and/or second-order correction.
 Total Energy, E(TD-HF/TD-DFT) =  -539.655758563
 Copying the excited state density for this state as the 1-particle RhoCI density.

 The electronic state is 1-A'.
 Alpha  occ. eigenvalues --  -10.77579 -10.73815 -10.72859 -10.72665 -10.72069
 Alpha  occ. eigenvalues --  -10.71932 -10.71884 -10.70992 -10.70796 -10.70233
 Alpha  occ. eigenvalues --  -10.70020 -10.69955 -10.69713 -10.69306  -1.16541
 Alpha  occ. eigenvalues --   -1.12467  -1.06937  -1.05847  -1.01284  -1.00421
 Alpha  occ. eigenvalues --   -0.95552  -0.91022  -0.86443  -0.85887  -0.83772
 Alpha  occ. eigenvalues --   -0.78325  -0.76140  -0.74362  -0.69801  -0.69323
 Alpha  occ. eigenvalues --   -0.68293  -0.68092  -0.68054  -0.65288  -0.64229
 Alpha  occ. eigenvalues --   -0.62725  -0.61561  -0.60483  -0.59237  -0.59167
 Alpha  occ. eigenvalues --   -0.56942  -0.55267  -0.54523  -0.52442  -0.47339
 Alpha  occ. eigenvalues --   -0.46127  -0.43759
 Alpha virt. eigenvalues --   -0.26110  -0.14666  -0.14075  -0.12761  -0.11191
 Alpha virt. eigenvalues --   -0.10093  -0.09261  -0.07958  -0.07925  -0.07485
 Alpha virt. eigenvalues --   -0.07211  -0.07134  -0.05647  -0.05573  -0.05353

 Mulliken charges:
               1
     1  C    0.071580
     2  C   -0.400827
     3  C   -0.432236
     4  C    0.027809
     5  C   -0.008324
     6  C   -0.444385
     7  C   -0.413641
     8  C    0.117028
     9  C   -0.347324
    10  C    0.080600
    11  C   -0.654707
    12  C    0.718922
    13  C   -0.599245
    14  C    0.665301
    15  H    0.240109
    16  H    0.260763
    17  H    0.252450
    18  H    0.225758
    19  H    0.189508
    20  H    0.218542
    21  H    0.245318
    22  H    0.251775
    23  H    0.235061
    24  H    0.250084
    25  H    0.250084
 Sum of Mulliken charges =   1.00000

 Dipole moment (field-independent basis, Debye):
    X=              0.7198    Y=             -0.8685    Z=              0.0000  Tot=              1.1280
 Quadrupole moment (field-independent basis, Debye-Ang):
   XX=            -49.1339   YY=            -38.1374   ZZ=            -84.1312
   XY=            -11.4044   XZ=              0.0000   YZ=              0.0000

 Normal termination of Gaussian 16 at Wed Jul 27 10:37:26 2022.
