 Gaussian 16, Revision C.01,
 Gaussian 16:  ES64L-G16RevC.01  3-Jul-2019

 ---------------------------------------------------------------
 #n M062X/6-311++G(d,p) TD(NStates=1) EmpiricalDispersion=GD3 SP
 ---------------------------------------------------------------

 ------
 SP_-75
 ------
 Symbolic Z-matrix:
 Charge =  1 Multiplicity = 1

                         Standard orientation:
 ---------------------------------------------------------------------
 Center     Atomic      Atomic             Coordinates (Angstroms)
 Number     Number       Type             X           Y           Z
 ---------------------------------------------------------------------
      1          6           0        2.486775   -1.372113    0.000000
      2          6           0        3.700893   -0.690447    0.000000
      3          6           0        3.686943    0.692951    0.000000
      4          6           0        2.465098    1.394282    0.000000
      5          6           0       -2.460886    1.420198    0.000000
      6          6           0       -3.678661    0.731098    0.000000
      7          6           0       -3.698697   -0.654828    0.000000
      8          6           0       -2.491930   -1.350818    0.000000
      9          6           0       -0.004093   -1.445710    0.000000
     10          6           0       -0.000000    1.428849    0.000000
     11          6           0        1.257888   -0.680476    0.000000
     12          6           0        1.238762    0.725645    0.000000
     13          6           0       -1.265780   -0.673355    0.000000
     14          6           0       -1.237612    0.736986    0.000000
     15          1           0        2.474576   -2.455395    0.000000
     16          1           0        4.633541   -1.234573    0.000000
     17          1           0        4.613419    1.250313    0.000000
     18          1           0        2.476869    2.476891    0.000000
     19          1           0        0.005165    2.510112    0.000000
     20          1           0       -2.459115    2.502726    0.000000
     21          1           0       -4.604045    1.290067    0.000000
     22          1           0       -4.635934   -1.191493    0.000000
     23          1           0       -2.493878   -2.434070    0.000000
     24          1           0       -0.001397   -2.144078    0.857675
     25          1           0       -0.001397   -2.144078   -0.857675
 ---------------------------------------------------------------------

 SCF Done:  E(RM062X) =  -539.759977633     A.U. after   15 cycles

 Excitation energies and oscillator strengths:

 Excited State   1:      Singlet-A'     2.8183 eV  439.92 nm  f=0.0287  <S**2>=0.000
      47 -> 48         0.70422
 This state for optimization and/or second-order correction.
 Total Energy, E(TD-HF/TD-DFT) =  -539.656405331
 Copying the excited state density for this state as the 1-particle RhoCI density.

 The electronic state is 1-A'.
 Alpha  occ. eigenvalues --  -10.77650 -10.73267 -10.73122 -10.72478 -10.72361
 Alpha  occ. eigenvalues --  -10.71433 -10.71295 -10.71141 -10.70957 -10.70883
 Alpha  occ. eigenvalues --  -10.70003 -10.69938 -10.69659 -10.69577  -1.16489
 Alpha  occ. eigenvalues --   -1.12496  -1.06944  -1.05804  -1.01314  -1.00241
 Alpha  occ. eigenvalues --   -0.95771  -0.91074  -0.86425  -0.85917  -0.83831
 Alpha  occ. eigenvalues --   -0.78405  -0.76071  -0.74422  -0.69544  -0.69257
 Alpha  occ. eigenvalues --   -0.68515  -0.68209  -0.68088  -0.64763  -0.64302
 Alpha  occ. eigenvalues --   -0.63122  -0.61867  -0.59973  -0.59680  -0.59081
 Alpha  occ. eigenvalues --   -0.56922  -0.55206  -0.54864  -0.52433  -0.46665
 Alpha  occ. eigenvalues --   -0.46060  -0.44460
 Alpha virt. eigenvalues --   -0.26072  -0.14674  -0.14094  -0.12770  -0.11182
 Alpha virt. eigenvalues --   -0.10092  -0.09230  -0.07983  -0.07960  -0.07477
 Alpha virt. eigenvalues --   -0.07210  -0.07149  -0.05641  -0.05584  -0.05336

 Mulliken charges:
               1
     1  C    0.096494
     2  C   -0.407653
     3  C   -0.440763
     4  C    0.023320
     5  C    0.028619
     6  C   -0.439505
     7  C   -0.405882
     8  C    0.090382
     9  C   -0.316014
    10  C    0.102709
    11  C   -0.638046
    12  C    0.660312
    13  C   -0.643087
    14  C    0.668487
    15  H    0.236572
    16  H    0.255896
    17  H    0.248559
    18  H    0.221491
    19  H    0.190185
    20  H    0.222456
    21  H    0.249458
    22  H    0.257023
    23  H    0.237215
    24  H    0.250887
    25  H    0.250887
 Sum of Mulliken charges =   1.00000

 Dipole moment (field-independent basis, Debye):
    X=             -0.1392    Y=              0.1819    Z=             -0.0000  Tot=              0.2291
 Quadrupole moment (field-independent basis, Debye-Ang):
   XX=            -31.1572   YY=            -56.2499   ZZ=            -84.1403
   XY=             -0.1767   XZ=              0.0000   YZ=              0.0000

 Normal termination of Gaussian 16 at Wed Jul 27 10:23:29 2022.
