 Gaussian 16, Revision C.01,
 Gaussian 16:  ES64L-G16RevC.01  3-Jul-2019

 ---------------------------------------------------------------
 #n M062X/6-311++G(d,p) TD(NStates=1) EmpiricalDispersion=GD3 SP
 ---------------------------------------------------------------

 -----
 SP_75
 -----
 Symbolic Z-matrix:
 Charge =  1 Multiplicity = 1

                         Standard orientation:
 ---------------------------------------------------------------------
 Center     Atomic      Atomic             Coordinates (Angstroms)
 Number     Number       Type             X           Y           Z
 ---------------------------------------------------------------------
      1          6           0        0.020552    2.846790    0.000000
      2          6           0       -1.152823    3.590913    0.000000
      3          6           0       -2.362103    2.917828    0.000000
      4          6           0       -2.394625    1.504470    0.000000
      5          6           0       -0.081268   -2.845225    0.000000
      6          6           0        1.099186   -3.587692    0.000000
      7          6           0        2.330102   -2.943751    0.000000
      8          6           0        2.371961   -1.553550    0.000000
      9          6           0        1.283885    0.690570    0.000000
     10          6           0       -1.254925   -0.684436    0.000000
     11          6           0        0.000000    1.428800    0.000000
     12          6           0       -1.224251    0.742673    0.000000
     13          6           0        1.196276   -0.794279    0.000000
     14          6           0       -0.059482   -1.440210    0.000000
     15          1           0        0.980253    3.349216    0.000000
     16          1           0       -1.118566    4.669948    0.000000
     17          1           0       -3.294827    3.464132    0.000000
     18          1           0       -3.353281    1.001468    0.000000
     19          1           0       -2.208847   -1.192959    0.000000
     20          1           0       -1.036029   -3.354990    0.000000
     21          1           0        1.049599   -4.667264    0.000000
     22          1           0        3.247108   -3.514381    0.000000
     23          1           0        3.327477   -1.043609    0.000000
     24          1           0        1.886102    1.025520    0.860700
     25          1           0        1.886102    1.025520   -0.860700
 ---------------------------------------------------------------------

 SCF Done:  E(RM062X) =  -539.759810900     A.U. after   15 cycles

 Excitation energies and oscillator strengths:

 Excited State   1:      Singlet-A'     2.8087 eV  441.43 nm  f=0.0272  <S**2>=0.000
      47 -> 48         0.70410
 This state for optimization and/or second-order correction.
 Total Energy, E(TD-HF/TD-DFT) =  -539.656592936
 Copying the excited state density for this state as the 1-particle RhoCI density.

 The electronic state is 1-A'.
 Alpha  occ. eigenvalues --  -10.77671 -10.73411 -10.73121 -10.72559 -10.72325
 Alpha  occ. eigenvalues --  -10.71507 -10.71260 -10.71233 -10.70994 -10.70745
 Alpha  occ. eigenvalues --  -10.70038 -10.69907 -10.69719 -10.69555  -1.16424
 Alpha  occ. eigenvalues --   -1.12450  -1.06945  -1.05695  -1.01311  -1.00171
 Alpha  occ. eigenvalues --   -0.95769  -0.91044  -0.86417  -0.85891  -0.83807
 Alpha  occ. eigenvalues --   -0.78390  -0.76012  -0.74412  -0.69590  -0.69244
 Alpha  occ. eigenvalues --   -0.68480  -0.68173  -0.68108  -0.64781  -0.64265
 Alpha  occ. eigenvalues --   -0.62997  -0.61844  -0.60087  -0.59614  -0.59102
 Alpha  occ. eigenvalues --   -0.56888  -0.55229  -0.54795  -0.52442  -0.46665
 Alpha  occ. eigenvalues --   -0.46068  -0.44452
 Alpha virt. eigenvalues --   -0.26099  -0.14667  -0.14096  -0.12775  -0.11178
 Alpha virt. eigenvalues --   -0.10083  -0.09232  -0.07981  -0.07972  -0.07476
 Alpha virt. eigenvalues --   -0.07200  -0.07142  -0.05645  -0.05579  -0.05332

 Mulliken charges:
               1
     1  C    0.097695
     2  C   -0.408047
     3  C   -0.441418
     4  C    0.003944
     5  C    0.013008
     6  C   -0.438328
     7  C   -0.404981
     8  C    0.086174
     9  C   -0.345219
    10  C    0.086494
    11  C   -0.626359
    12  C    0.691964
    13  C   -0.639580
    14  C    0.705785
    15  H    0.236863
    16  H    0.255104
    17  H    0.247951
    18  H    0.221119
    19  H    0.190467
    20  H    0.222946
    21  H    0.249744
    22  H    0.257370
    23  H    0.238155
    24  H    0.249576
    25  H    0.249576
 Sum of Mulliken charges =   1.00000

 Dipole moment (field-independent basis, Debye):
    X=             -0.0359    Y=             -0.3369    Z=             -0.0000  Tot=              0.3388
 Quadrupole moment (field-independent basis, Debye-Ang):
   XX=            -50.7912   YY=            -36.5657   ZZ=            -84.1422
   XY=            -10.3909   XZ=              0.0000   YZ=             -0.0000

 Normal termination of Gaussian 16 at Wed Jul 27 12:07:04 2022.
