 Gaussian 16, Revision C.01,
 Gaussian 16:  ES64L-G16RevC.01  3-Jul-2019

 ---------------------------------------------------------------
 #n M062X/6-311++G(d,p) TD(NStates=1) EmpiricalDispersion=GD3 SP
 ---------------------------------------------------------------

 ----
 SP_0
 ----
 Symbolic Z-matrix:
 Charge =  1 Multiplicity = 1

                         Standard orientation:
 ---------------------------------------------------------------------
 Center     Atomic      Atomic             Coordinates (Angstroms)
 Number     Number       Type             X           Y           Z
 ---------------------------------------------------------------------
      1          6           0       -2.369124   -1.552055    0.000000
      2          6           0       -2.324137   -2.942753    0.000000
      3          6           0       -1.093076   -3.588898    0.000000
      4          6           0        0.083765   -2.849708    0.000000
      5          6           0        2.389410    1.504035    0.000000
      6          6           0        2.357108    2.922193    0.000000
      7          6           0        1.149936    3.596088    0.000000
      8          6           0       -0.021613    2.849289    0.000000
      9          6           0       -1.282472    0.690890    0.000000
     10          6           0        1.252543   -0.688822    0.000000
     11          6           0       -1.197739   -0.795253    0.000000
     12          6           0        0.059760   -1.442716    0.000000
     13          6           0        0.000000    1.426970    0.000000
     14          6           0        1.222251    0.741608    0.000000
     15          1           0       -3.326131   -1.044962    0.000000
     16          1           0       -3.240989   -3.513868    0.000000
     17          1           0       -1.046385   -4.668608    0.000000
     18          1           0        1.039840   -3.356900    0.000000
     19          1           0        2.207139   -1.196132    0.000000
     20          1           0        3.349580    1.003726    0.000000
     21          1           0        3.291303    3.466214    0.000000
     22          1           0        1.114967    4.674989    0.000000
     23          1           0       -0.982934    3.348766    0.000000
     24          1           0       -1.883029    1.030783    0.860425
     25          1           0       -1.883029    1.030783   -0.860425
 ---------------------------------------------------------------------

 SCF Done:  E(RM062X) =  -539.759265001     A.U. after   15 cycles

 Excitation energies and oscillator strengths:

 Excited State   1:      Singlet-A'     2.7919 eV  444.08 nm  f=0.0260  <S**2>=0.000
      47 -> 48         0.70396
 This state for optimization and/or second-order correction.
 Total Energy, E(TD-HF/TD-DFT) =  -539.656663371
 Copying the excited state density for this state as the 1-particle RhoCI density.

 The electronic state is 1-A'.
 Alpha  occ. eigenvalues --  -10.77661 -10.73476 -10.73041 -10.72611 -10.72261
 Alpha  occ. eigenvalues --  -10.71573 -10.71393 -10.71162 -10.70991 -10.70621
 Alpha  occ. eigenvalues --  -10.70071 -10.69874 -10.69758 -10.69512  -1.16439
 Alpha  occ. eigenvalues --   -1.12455  -1.06944  -1.05717  -1.01309  -1.00200
 Alpha  occ. eigenvalues --   -0.95748  -0.91044  -0.86420  -0.85892  -0.83805
 Alpha  occ. eigenvalues --   -0.78385  -0.76028  -0.74408  -0.69608  -0.69253
 Alpha  occ. eigenvalues --   -0.68463  -0.68164  -0.68105  -0.64838  -0.64261
 Alpha  occ. eigenvalues --   -0.62972  -0.61821  -0.60137  -0.59563  -0.59107
 Alpha  occ. eigenvalues --   -0.56896  -0.55235  -0.54771  -0.52441  -0.46735
 Alpha  occ. eigenvalues --   -0.46079  -0.44375
 Alpha virt. eigenvalues --   -0.26098  -0.14667  -0.14094  -0.12774  -0.11179
 Alpha virt. eigenvalues --   -0.10085  -0.09235  -0.07979  -0.07967  -0.07476
 Alpha virt. eigenvalues --   -0.07202  -0.07142  -0.05645  -0.05579  -0.05334

 Mulliken charges:
               1
     1  C    0.083738
     2  C   -0.404330
     3  C   -0.437463
     4  C    0.016724
     5  C    0.002888
     6  C   -0.442035
     7  C   -0.409035
     8  C    0.100939
     9  C   -0.343241
    10  C    0.087295
    11  C   -0.643115
    12  C    0.706492
    13  C   -0.623579
    14  C    0.685678
    15  H    0.238439
    16  H    0.257953
    17  H    0.250208
    18  H    0.223410
    19  H    0.190360
    20  H    0.220662
    21  H    0.247519
    22  H    0.254558
    23  H    0.236509
    24  H    0.249713
    25  H    0.249713
 Sum of Mulliken charges =   1.00000

 Dipole moment (field-independent basis, Debye):
    X=             -0.0316    Y=             -0.4592    Z=              0.0000  Tot=              0.4603
 Quadrupole moment (field-independent basis, Debye-Ang):
   XX=            -50.8640   YY=            -36.4890   ZZ=            -84.1411
   XY=             10.3426   XZ=             -0.0000   YZ=             -0.0000

 Normal termination of Gaussian 16 at Wed Jul 27 11:22:39 2022.
