 Gaussian 16, Revision C.01,
 Gaussian 16:  ES64L-G16RevC.01  3-Jul-2019

 ---------------------------------------------------------------
 #n M062X/6-311++G(d,p) TD(NStates=1) EmpiricalDispersion=GD3 SP
 ---------------------------------------------------------------

 ------
 SP_-75
 ------
 Symbolic Z-matrix:
 Charge =  1 Multiplicity = 1

                         Standard orientation:
 ---------------------------------------------------------------------
 Center     Atomic      Atomic             Coordinates (Angstroms)
 Number     Number       Type             X           Y           Z
 ---------------------------------------------------------------------
      1          6           0       -2.357928   -1.547089    0.000000
      2          6           0       -2.300255   -2.939248    0.000000
      3          6           0       -1.068174   -3.594165    0.000000
      4          6           0        0.094013   -2.867683    0.000000
      5          6           0        2.368641    1.502328    0.000000
      6          6           0        2.337550    2.939734    0.000000
      7          6           0        1.138558    3.617170    0.000000
      8          6           0       -0.025289    2.860006    0.000000
      9          6           0       -1.278971    0.692867    0.000000
     10          6           0        1.243224   -0.706388    0.000000
     11          6           0       -1.203599   -0.799258    0.000000
     12          6           0        0.060942   -1.452475    0.000000
     13          6           0       -0.000000    1.419757    0.000000
     14          6           0        1.214031    0.737282    0.000000
     15          1           0       -3.320921   -1.051591    0.000000
     16          1           0       -3.216338   -3.512524    0.000000
     17          1           0       -1.032842   -4.674407    0.000000
     18          1           0        1.055403   -3.364340    0.000000
     19          1           0        2.200479   -1.208778    0.000000
     20          1           0        3.334730    1.012687    0.000000
     21          1           0        3.277696    3.474496    0.000000
     22          1           0        1.100924    4.695519    0.000000
     23          1           0       -0.992976    3.347748    0.000000
     24          1           0       -1.871309    1.052078    0.859875
     25          1           0       -1.871309    1.052078   -0.859875
 ---------------------------------------------------------------------

 SCF Done:  E(RM062X) =  -539.754905811     A.U. after   15 cycles

 Excitation energies and oscillator strengths:

 Excited State   1:      Singlet-A'     2.6865 eV  461.50 nm  f=0.0205  <S**2>=0.000
      47 -> 48         0.70354
 This state for optimization and/or second-order correction.
 Total Energy, E(TD-HF/TD-DFT) =  -539.656177397
 Copying the excited state density for this state as the 1-particle RhoCI density.

 The electronic state is 1-A'.
 Alpha  occ. eigenvalues --  -10.77598 -10.73740 -10.72810 -10.72733 -10.71997
 Alpha  occ. eigenvalues --  -10.71933 -10.71824 -10.70987 -10.70870 -10.70201
 Alpha  occ. eigenvalues --  -10.70138 -10.69915 -10.69745 -10.69345  -1.16521
 Alpha  occ. eigenvalues --   -1.12469  -1.06939  -1.05825  -1.01291  -1.00373
 Alpha  occ. eigenvalues --   -0.95601  -0.91032  -0.86438  -0.85891  -0.83783
 Alpha  occ. eigenvalues --   -0.78343  -0.76118  -0.74375  -0.69751  -0.69308
 Alpha  occ. eigenvalues --   -0.68338  -0.68093  -0.68084  -0.65188  -0.64237
 Alpha  occ. eigenvalues --   -0.62786  -0.61633  -0.60405  -0.59303  -0.59152
 Alpha  occ. eigenvalues --   -0.56935  -0.55263  -0.54588  -0.52440  -0.47197
 Alpha  occ. eigenvalues --   -0.46118  -0.43899
 Alpha virt. eigenvalues --   -0.26104  -0.14667  -0.14080  -0.12764  -0.11188
 Alpha virt. eigenvalues --   -0.10092  -0.09254  -0.07964  -0.07935  -0.07483
 Alpha virt. eigenvalues --   -0.07210  -0.07137  -0.05646  -0.05575  -0.05349

 Mulliken charges:
               1
     1  C    0.073737
     2  C   -0.401685
     3  C   -0.433500
     4  C    0.027793
     5  C   -0.004499
     6  C   -0.443953
     7  C   -0.412829
     8  C    0.114005
     9  C   -0.343003
    10  C    0.084471
    11  C   -0.653719
    12  C    0.714459
    13  C   -0.607201
    14  C    0.666387
    15  H    0.239716
    16  H    0.260228
    17  H    0.252023
    18  H    0.225303
    19  H    0.189694
    20  H    0.218918
    21  H    0.245772
    22  H    0.252350
    23  H    0.235275
    24  H    0.250129
    25  H    0.250129
 Sum of Mulliken charges =   1.00000

 Dipole moment (field-independent basis, Debye):
    X=             -0.3018    Y=             -0.9452    Z=             -0.0000  Tot=              0.9922
 Quadrupole moment (field-independent basis, Debye-Ang):
   XX=            -51.1514   YY=            -36.1474   ZZ=            -84.1335
   XY=             10.1707   XZ=              0.0000   YZ=             -0.0000

 Normal termination of Gaussian 16 at Wed Jul 27 10:35:37 2022.
