 Gaussian 16, Revision C.01,
 Gaussian 16:  ES64L-G16RevC.01  3-Jul-2019

 ---------------------------------------------------------------
 #n M062X/6-311++G(d,p) TD(NStates=1) EmpiricalDispersion=GD3 SP
 ---------------------------------------------------------------

 -------
 SP_-100
 -------
 Symbolic Z-matrix:
 Charge =  1 Multiplicity = 1

                         Standard orientation:
 ---------------------------------------------------------------------
 Center     Atomic      Atomic             Coordinates (Angstroms)
 Number     Number       Type             X           Y           Z
 ---------------------------------------------------------------------
      1          6           0       -2.355089   -1.545601    0.000000
      2          6           0       -2.294266   -2.938233    0.000000
      3          6           0       -1.062007   -3.595340    0.000000
      4          6           0        0.096588   -2.872147    0.000000
      5          6           0        2.363422    1.501891    0.000000
      6          6           0        2.332491    2.944103    0.000000
      7          6           0        1.135587    3.622355    0.000000
      8          6           0       -0.026406    2.862511    0.000000
      9          6           0       -1.277619    0.693100    0.000000
     10          6           0        1.240895   -0.710774    0.000000
     11          6           0       -1.205044   -0.800258    0.000000
     12          6           0        0.061263   -1.454978    0.000000
     13          6           0        0.000000    1.417938    0.000000
     14          6           0        1.212038    0.736224    0.000000
     15          1           0       -3.319557   -1.052975    0.000000
     16          1           0       -3.210186   -3.512008    0.000000
     17          1           0       -1.029556   -4.675748    0.000000
     18          1           0        1.059281   -3.366211    0.000000
     19          1           0        2.198825   -1.211935    0.000000
     20          1           0        3.331012    1.014967    0.000000
     21          1           0        3.274124    3.476609    0.000000
     22          1           0        1.097227    4.700566    0.000000
     23          1           0       -0.995698    3.347281    0.000000
     24          1           0       -1.868297    1.057352    0.859600
     25          1           0       -1.868297    1.057352   -0.859600
 ---------------------------------------------------------------------

 SCF Done:  E(RM062X) =  -539.753255440     A.U. after   15 cycles

 Excitation energies and oscillator strengths:

 Excited State   1:      Singlet-A'     2.6548 eV  467.01 nm  f=0.0194  <S**2>=0.000
      47 -> 48         0.70349
 This state for optimization and/or second-order correction.
 Total Energy, E(TD-HF/TD-DFT) =  -539.655691540
 Copying the excited state density for this state as the 1-particle RhoCI density.

 The electronic state is 1-A'.
 Alpha  occ. eigenvalues --  -10.77574 -10.73800 -10.72855 -10.72653 -10.72071
 Alpha  occ. eigenvalues --  -10.71928 -10.71883 -10.70985 -10.70795 -10.70232
 Alpha  occ. eigenvalues --  -10.70022 -10.69952 -10.69713 -10.69302  -1.16553
 Alpha  occ. eigenvalues --   -1.12475  -1.06937  -1.05868  -1.01284  -1.00435
 Alpha  occ. eigenvalues --   -0.95551  -0.91027  -0.86445  -0.85891  -0.83776
 Alpha  occ. eigenvalues --   -0.78328  -0.76151  -0.74364  -0.69797  -0.69326
 Alpha  occ. eigenvalues --   -0.68297  -0.68088  -0.68059  -0.65294  -0.64234
 Alpha  occ. eigenvalues --   -0.62735  -0.61568  -0.60476  -0.59235  -0.59166
 Alpha  occ. eigenvalues --   -0.56948  -0.55267  -0.54529  -0.52440  -0.47344
 Alpha  occ. eigenvalues --   -0.46126  -0.43755
 Alpha virt. eigenvalues --   -0.26105  -0.14667  -0.14074  -0.12760  -0.11192
 Alpha virt. eigenvalues --   -0.10095  -0.09261  -0.07959  -0.07922  -0.07485
 Alpha virt. eigenvalues --   -0.07213  -0.07135  -0.05646  -0.05574  -0.05355

 Mulliken charges:
               1
     1  C    0.071382
     2  C   -0.401072
     3  C   -0.432444
     4  C    0.031170
     5  C   -0.005784
     6  C   -0.444247
     7  C   -0.413915
     8  C    0.117623
     9  C   -0.342284
    10  C    0.083799
    11  C   -0.656273
    12  C    0.715150
    13  C   -0.603026
    14  C    0.660157
    15  H    0.240017
    16  H    0.260797
    17  H    0.252482
    18  H    0.225783
    19  H    0.189437
    20  H    0.218490
    21  H    0.245346
    22  H    0.251815
    23  H    0.234965
    24  H    0.250315
    25  H    0.250315
 Sum of Mulliken charges =   1.00000

 Dipole moment (field-independent basis, Debye):
    X=             -0.3700    Y=             -1.0651    Z=             -0.0000  Tot=              1.1276
 Quadrupole moment (field-independent basis, Debye-Ang):
   XX=            -51.2221   YY=            -36.0575   ZZ=            -84.1306
   XY=             10.1299   XZ=              0.0000   YZ=             -0.0000

 Normal termination of Gaussian 16 at Wed Jul 27 10:19:04 2022.
