 Gaussian 16, Revision C.01,
 Gaussian 16:  ES64L-G16RevC.01  3-Jul-2019

 ---------------------------------------------------------------
 #n M062X/6-311++G(d,p) TD(NStates=1) EmpiricalDispersion=GD3 SP
 ---------------------------------------------------------------

 ------
 SP_-50
 ------
 Symbolic Z-matrix:
 Charge =  1 Multiplicity = 1

                         Standard orientation:
 ---------------------------------------------------------------------
 Center     Atomic      Atomic             Coordinates (Angstroms)
 Number     Number       Type             X           Y           Z
 ---------------------------------------------------------------------
      1          6           0        0.023979    2.843300    0.000000
      2          6           0       -1.151101    3.589167    0.000000
      3          6           0       -2.359329    2.917563    0.000000
      4          6           0       -2.394136    1.504363    0.000000
      5          6           0       -0.080808   -2.844781    0.000000
      6          6           0        1.100856   -3.585147    0.000000
      7          6           0        2.329896   -2.941142    0.000000
      8          6           0        2.371121   -1.548549    0.000000
      9          6           0        1.274093    0.685549    0.000000
     10          6           0       -1.254450   -0.684269    0.000000
     11          6           0        0.000000    1.428403    0.000000
     12          6           0       -1.225418    0.743135    0.000000
     13          6           0        1.196028   -0.793959    0.000000
     14          6           0       -0.059603   -1.441457    0.000000
     15          1           0        0.984120    3.345169    0.000000
     16          1           0       -1.115778    4.668235    0.000000
     17          1           0       -3.291881    3.464778    0.000000
     18          1           0       -3.353350    1.002139    0.000000
     19          1           0       -2.208568   -1.192954    0.000000
     20          1           0       -1.035184   -3.355532    0.000000
     21          1           0        1.052225   -4.665089    0.000000
     22          1           0        3.247576   -3.510815    0.000000
     23          1           0        3.326370   -1.037842    0.000000
     24          1           0        1.883850    1.024423    0.857950
     25          1           0        1.883850    1.024423   -0.857950
 ---------------------------------------------------------------------

 SCF Done:  E(RM062X) =  -539.759655575     A.U. after   15 cycles

 Excitation energies and oscillator strengths:

 Excited State   1:      Singlet-A'     2.8082 eV  441.51 nm  f=0.0278  <S**2>=0.000
      47 -> 48         0.70410
 This state for optimization and/or second-order correction.
 Total Energy, E(TD-HF/TD-DFT) =  -539.656457162
 Copying the excited state density for this state as the 1-particle RhoCI density.

 The electronic state is 1-A'.
 Alpha  occ. eigenvalues --  -10.77648 -10.73344 -10.73056 -10.72536 -10.72303
 Alpha  occ. eigenvalues --  -10.71501 -10.71270 -10.71226 -10.70959 -10.70756
 Alpha  occ. eigenvalues --  -10.70035 -10.69906 -10.69702 -10.69537  -1.16488
 Alpha  occ. eigenvalues --   -1.12492  -1.06944  -1.05799  -1.01313  -1.00246
 Alpha  occ. eigenvalues --   -0.95760  -0.91070  -0.86426  -0.85914  -0.83827
 Alpha  occ. eigenvalues --   -0.78401  -0.76071  -0.74419  -0.69561  -0.69260
 Alpha  occ. eigenvalues --   -0.68501  -0.68199  -0.68089  -0.64798  -0.64292
 Alpha  occ. eigenvalues --   -0.63088  -0.61853  -0.60029  -0.59629  -0.59087
 Alpha  occ. eigenvalues --   -0.56921  -0.55215  -0.54839  -0.52434  -0.46702
 Alpha  occ. eigenvalues --   -0.46067  -0.44418
 Alpha virt. eigenvalues --   -0.26075  -0.14673  -0.14094  -0.12770  -0.11182
 Alpha virt. eigenvalues --   -0.10092  -0.09232  -0.07981  -0.07959  -0.07477
 Alpha virt. eigenvalues --   -0.07209  -0.07147  -0.05641  -0.05583  -0.05337

 Mulliken charges:
               1
     1  C    0.099378
     2  C   -0.408691
     3  C   -0.441257
     4  C    0.019078
     5  C    0.029335
     6  C   -0.438687
     7  C   -0.405280
     8  C    0.087005
     9  C   -0.318985
    10  C    0.100981
    11  C   -0.635221
    12  C    0.660728
    13  C   -0.645636
    14  C    0.676811
    15  H    0.236320
    16  H    0.255311
    17  H    0.248097
    18  H    0.221023
    19  H    0.190163
    20  H    0.222940
    21  H    0.249897
    22  H    0.257563
    23  H    0.237615
    24  H    0.250755
    25  H    0.250755
 Sum of Mulliken charges =   1.00000

 Dipole moment (field-independent basis, Debye):
    X=             -0.0281    Y=             -0.3325    Z=             -0.0000  Tot=              0.3337
 Quadrupole moment (field-independent basis, Debye-Ang):
   XX=            -50.7906   YY=            -36.6077   ZZ=            -84.1399
   XY=            -10.3608   XZ=              0.0000   YZ=              0.0000

 Normal termination of Gaussian 16 at Wed Jul 27 10:40:27 2022.
