 Gaussian 16, Revision C.01,
 Gaussian 16:  ES64L-G16RevC.01  3-Jul-2019

 ---------------------------------------------------------------
 #n M062X/6-311++G(d,p) TD(NStates=1) EmpiricalDispersion=GD3 SP
 ---------------------------------------------------------------

 ------
 SP_100
 ------
 Symbolic Z-matrix:
 Charge =  1 Multiplicity = 1

                         Standard orientation:
 ---------------------------------------------------------------------
 Center     Atomic      Atomic             Coordinates (Angstroms)
 Number     Number       Type             X           Y           Z
 ---------------------------------------------------------------------
      1          6           0        0.024184    2.857503    0.000000
      2          6           0       -1.141510    3.611990    0.000000
      3          6           0       -2.342596    2.935368    0.000000
      4          6           0       -2.373859    1.502768    0.000000
      5          6           0       -0.091457   -2.863213    0.000000
      6          6           0        1.074325   -3.592982    0.000000
      7          6           0        2.306237   -2.940259    0.000000
      8          6           0        2.360765   -1.548578    0.000000
      9          6           0        1.280349    0.692591    0.000000
     10          6           0       -1.245564   -0.701999    0.000000
     11          6           0        0.000000    1.421581    0.000000
     12          6           0       -1.216027    0.738344    0.000000
     13          6           0        1.202148   -0.798263    0.000000
     14          6           0       -0.060631   -1.449971    0.000000
     15          1           0        0.990263    3.348213    0.000000
     16          1           0       -1.104598    4.690476    0.000000
     17          1           0       -3.281257    3.472393    0.000000
     18          1           0       -3.338445    1.010416    0.000000
     19          1           0       -2.202146   -1.205615    0.000000
     20          1           0       -1.051541   -3.362460    0.000000
     21          1           0        1.036109   -4.673065    0.000000
     22          1           0        3.222480   -3.513040    0.000000
     23          1           0        3.322280   -1.050214    0.000000
     24          1           0        1.874332    1.046807    0.860150
     25          1           0        1.874332    1.046807   -0.860150
 ---------------------------------------------------------------------

 SCF Done:  E(RM062X) =  -539.756332040     A.U. after   15 cycles

 Excitation energies and oscillator strengths:

 Excited State   1:      Singlet-A'     2.7167 eV  456.38 nm  f=0.0217  <S**2>=0.000
      47 -> 48         0.70361
 This state for optimization and/or second-order correction.
 Total Energy, E(TD-HF/TD-DFT) =  -539.656494773
 Copying the excited state density for this state as the 1-particle RhoCI density.

 The electronic state is 1-A'.
 Alpha  occ. eigenvalues --  -10.77620 -10.73678 -10.72814 -10.72764 -10.72066
 Alpha  occ. eigenvalues --  -10.71796 -10.71763 -10.70990 -10.70944 -10.70256
 Alpha  occ. eigenvalues --  -10.70169 -10.69877 -10.69777 -10.69388  -1.16492
 Alpha  occ. eigenvalues --   -1.12463  -1.06941  -1.05786  -1.01296  -1.00316
 Alpha  occ. eigenvalues --   -0.95647  -0.91035  -0.86432  -0.85891  -0.83790
 Alpha  occ. eigenvalues --   -0.78356  -0.76087  -0.74384  -0.69708  -0.69291
 Alpha  occ. eigenvalues --   -0.68375  -0.68107  -0.68097  -0.65087  -0.64241
 Alpha  occ. eigenvalues --   -0.62835  -0.61692  -0.60336  -0.59371  -0.59139
 Alpha  occ. eigenvalues --   -0.56922  -0.55258  -0.54641  -0.52441  -0.47059
 Alpha  occ. eigenvalues --   -0.46110  -0.44037
 Alpha virt. eigenvalues --   -0.26103  -0.14667  -0.14085  -0.12767  -0.11185
 Alpha virt. eigenvalues --   -0.10089  -0.09248  -0.07969  -0.07945  -0.07481
 Alpha virt. eigenvalues --   -0.07207  -0.07138  -0.05646  -0.05576  -0.05344

 Mulliken charges:
               1
     1  C    0.110477
     2  C   -0.411758
     3  C   -0.443589
     4  C   -0.003247
     5  C    0.024325
     6  C   -0.434520
     7  C   -0.402312
     8  C    0.076090
     9  C   -0.343975
    10  C    0.084848
    11  C   -0.611054
    12  C    0.672644
    13  C   -0.651019
    14  C    0.713765
    15  H    0.235594
    16  H    0.252888
    17  H    0.246201
    18  H    0.219354
    19  H    0.189922
    20  H    0.224824
    21  H    0.251562
    22  H    0.259656
    23  H    0.239418
    24  H    0.249953
    25  H    0.249953
 Sum of Mulliken charges =   1.00000

 Dipole moment (field-independent basis, Debye):
    X=              0.2337    Y=             -0.8247    Z=              0.0000  Tot=              0.8572
 Quadrupole moment (field-independent basis, Debye-Ang):
   XX=            -51.0803   YY=            -36.2346   ZZ=            -84.1361
   XY=            -10.2129   XZ=              0.0000   YZ=              0.0000

 Normal termination of Gaussian 16 at Wed Jul 27 12:19:29 2022.
