 Gaussian 16, Revision C.01,
 Gaussian 16:  ES64L-G16RevC.01  3-Jul-2019

 ---------------------------------------------------------------
 #n M062X/6-311++G(d,p) TD(NStates=1) EmpiricalDispersion=GD3 SP
 ---------------------------------------------------------------

 ------
 SP_150
 ------
 Symbolic Z-matrix:
 Charge =  1 Multiplicity = 1

                         Standard orientation:
 ---------------------------------------------------------------------
 Center     Atomic      Atomic             Coordinates (Angstroms)
 Number     Number       Type             X           Y           Z
 ---------------------------------------------------------------------
      1          6           0       -2.491066   -1.360188    0.003973
      2          6           0       -3.709818   -0.671621    0.012829
      3          6           0       -3.697509    0.714282    0.012680
      4          6           0       -2.473966    1.408048   -0.005294
      5          6           0        2.475096    1.407296   -0.003593
      6          6           0        3.701213    0.713175    0.013644
      7          6           0        3.710824   -0.672718    0.012578
      8          6           0        2.492746   -1.360876   -0.000612
      9          6           0       -0.007922   -1.453394   -0.005621
     10          6           0        0.000573    1.429443   -0.015204
     11          6           0       -1.252680   -0.676780   -0.012732
     12          6           0       -1.239384    0.731099   -0.006114
     13          6           0        1.252305   -0.677157   -0.012220
     14          6           0        1.238557    0.730705   -0.003688
     15          1           0       -2.486738   -2.443214   -0.019309
     16          1           0       -4.642818   -1.211153    0.007096
     17          1           0       -4.606323    1.273015    0.008558
     18          1           0       -2.477978    2.490398    0.016307
     19          1           0        0.000557    2.510428   -0.000918
     20          1           0        2.479246    2.489629    0.019410
     21          1           0        4.611075    1.271618    0.011326
     22          1           0        4.645064   -1.212527    0.006918
     23          1           0        2.488281   -2.443889   -0.024948
     24          1           0       -0.001728   -2.134696   -0.843612
     25          1           0       -0.002444   -2.157488    0.875412
 ---------------------------------------------------------------------

 SCF Done:  E(RM062X) =  -539.757856078     A.U. after   15 cycles

 Excitation energies and oscillator strengths:

 Excited State   1:      Singlet-A      2.8001 eV  442.79 nm  f=0.0277  <S**2>=0.000
      47 -> 48         0.70427
 This state for optimization and/or second-order correction.
 Total Energy, E(TD-HF/TD-DFT) =  -539.654955869
 Copying the excited state density for this state as the 1-particle RhoCI density.

 The electronic state is 1-A.
 Alpha  occ. eigenvalues --  -10.77657 -10.73330 -10.73234 -10.72544 -10.72540
 Alpha  occ. eigenvalues --  -10.71526 -10.71474 -10.71092 -10.71075 -10.70980
 Alpha  occ. eigenvalues --  -10.70133 -10.70096 -10.69614 -10.69566  -1.16363
 Alpha  occ. eigenvalues --   -1.12200  -1.06811  -1.05814  -1.01077  -1.00195
 Alpha  occ. eigenvalues --   -0.95686  -0.91079  -0.86409  -0.85857  -0.83804
 Alpha  occ. eigenvalues --   -0.78390  -0.76004  -0.74365  -0.69586  -0.69328
 Alpha  occ. eigenvalues --   -0.68631  -0.68255  -0.68123  -0.64545  -0.64119
 Alpha  occ. eigenvalues --   -0.63190  -0.62030  -0.59897  -0.59481  -0.59156
 Alpha  occ. eigenvalues --   -0.56933  -0.55280  -0.54905  -0.52336  -0.46465
 Alpha  occ. eigenvalues --   -0.46037  -0.44381
 Alpha virt. eigenvalues --   -0.26068  -0.14822  -0.14135  -0.12936  -0.11177
 Alpha virt. eigenvalues --   -0.10080  -0.09211  -0.08013  -0.07920  -0.07467
 Alpha virt. eigenvalues --   -0.07222  -0.07145  -0.05647  -0.05582  -0.05359

 Mulliken charges:
               1
     1  C    0.072315
     2  C   -0.399863
     3  C   -0.443064
     4  C    0.046450
     5  C    0.048650
     6  C   -0.441399
     7  C   -0.393609
     8  C    0.075606
     9  C   -0.292778
    10  C    0.094036
    11  C   -0.625115
    12  C    0.637887
    13  C   -0.622579
    14  C    0.631618
    15  H    0.236140
    16  H    0.256847
    17  H    0.244122
    18  H    0.222613
    19  H    0.188241
    20  H    0.222616
    21  H    0.244733
    22  H    0.256988
    23  H    0.236173
    24  H    0.248472
    25  H    0.254900
 Sum of Mulliken charges =   1.00000

 Dipole moment (field-independent basis, Debye):
    X=              0.0095    Y=              0.1915    Z=              0.0009  Tot=              0.1917
 Quadrupole moment (field-independent basis, Debye-Ang):
   XX=            -30.8987   YY=            -56.2596   ZZ=            -84.2227
   XY=              0.0053   XZ=              0.0086   YZ=              0.1191

 Normal termination of Gaussian 16 at Wed Jul 27 13:41:19 2022.
