 Gaussian 16, Revision C.01,
 Gaussian 16:  ES64L-G16RevC.01  3-Jul-2019

 ---------------------------------------------------------------
 #n M062X/6-311++G(d,p) TD(NStates=1) EmpiricalDispersion=GD3 SP
 ---------------------------------------------------------------

 ----
 SP_0
 ----
 Symbolic Z-matrix:
 Charge =  1 Multiplicity = 1

                         Standard orientation:
 ---------------------------------------------------------------------
 Center     Atomic      Atomic             Coordinates (Angstroms)
 Number     Number       Type             X           Y           Z
 ---------------------------------------------------------------------
      1          6           0       -2.371796   -1.552550    0.000000
      2          6           0       -2.330065   -2.943230    0.000000
      3          6           0       -1.099525   -3.587185    0.000000
      4          6           0        0.081171   -2.845140    0.000000
      5          6           0        2.394527    1.504443    0.000000
      6          6           0        2.361550    2.917770    0.000000
      7          6           0        1.152480    3.590560    0.000000
      8          6           0       -0.021236    2.846089    0.000000
      9          6           0       -1.281904    0.689608    0.000000
     10          6           0        1.254828   -0.684407    0.000000
     11          6           0       -1.196229   -0.794216    0.000000
     12          6           0        0.059503   -1.440462    0.000000
     13          6           0        0.000000    1.428718    0.000000
     14          6           0        1.224484    0.742762    0.000000
     15          1           0       -3.327258   -1.042455    0.000000
     16          1           0       -3.247207   -3.513667    0.000000
     17          1           0       -1.050131   -4.666831    0.000000
     18          1           0        1.035855   -3.355102    0.000000
     19          1           0        2.208788   -1.192963    0.000000
     20          1           0        3.353294    1.001596    0.000000
     21          1           0        3.294240    3.464255    0.000000
     22          1           0        1.118012    4.669601    0.000000
     23          1           0       -0.981024    3.348405    0.000000
     24          1           0       -1.885652    1.025300    0.860150
     25          1           0       -1.885652    1.025300   -0.860150
 ---------------------------------------------------------------------

 SCF Done:  E(RM062X) =  -539.759796800     A.U. after   15 cycles

 Excitation energies and oscillator strengths:

 Excited State   1:      Singlet-A'     2.8086 eV  441.44 nm  f=0.0274  <S**2>=0.000
      47 -> 48         0.70410
 This state for optimization and/or second-order correction.
 Total Energy, E(TD-HF/TD-DFT) =  -539.656581670
 Copying the excited state density for this state as the 1-particle RhoCI density.

 The electronic state is 1-A'.
 Alpha  occ. eigenvalues --  -10.77666 -10.73397 -10.73108 -10.72554 -10.72321
 Alpha  occ. eigenvalues --  -10.71506 -10.71262 -10.71232 -10.70987 -10.70747
 Alpha  occ. eigenvalues --  -10.70038 -10.69907 -10.69715 -10.69552  -1.16436
 Alpha  occ. eigenvalues --   -1.12458  -1.06945  -1.05716  -1.01312  -1.00186
 Alpha  occ. eigenvalues --   -0.95767  -0.91049  -0.86419  -0.85895  -0.83811
 Alpha  occ. eigenvalues --   -0.78392  -0.76023  -0.74413  -0.69584  -0.69247
 Alpha  occ. eigenvalues --   -0.68484  -0.68179  -0.68104  -0.64784  -0.64271
 Alpha  occ. eigenvalues --   -0.63015  -0.61846  -0.60075  -0.59618  -0.59099
 Alpha  occ. eigenvalues --   -0.56895  -0.55226  -0.54804  -0.52440  -0.46672
 Alpha  occ. eigenvalues --   -0.46068  -0.44445
 Alpha virt. eigenvalues --   -0.26094  -0.14668  -0.14096  -0.12774  -0.11178
 Alpha virt. eigenvalues --   -0.10085  -0.09232  -0.07981  -0.07969  -0.07476
 Alpha virt. eigenvalues --   -0.07202  -0.07143  -0.05644  -0.05580  -0.05333

 Mulliken charges:
               1
     1  C    0.086641
     2  C   -0.405163
     3  C   -0.438393
     4  C    0.016087
     5  C    0.006761
     6  C   -0.441388
     7  C   -0.408324
     8  C    0.098276
     9  C   -0.340045
    10  C    0.089549
    11  C   -0.641241
    12  C    0.700435
    13  C   -0.628608
    14  C    0.686239
    15  H    0.238053
    16  H    0.257407
    17  H    0.249775
    18  H    0.222939
    19  H    0.190405
    20  H    0.221095
    21  H    0.247979
    22  H    0.255144
    23  H    0.236762
    24  H    0.249807
    25  H    0.249807
 Sum of Mulliken charges =   1.00000

 Dipole moment (field-independent basis, Debye):
    X=              0.0344    Y=             -0.3361    Z=              0.0000  Tot=              0.3378
 Quadrupole moment (field-independent basis, Debye-Ang):
   XX=            -50.7910   YY=            -36.5740   ZZ=            -84.1417
   XY=             10.3850   XZ=              0.0000   YZ=              0.0000

 Normal termination of Gaussian 16 at Wed Jul 27 11:21:15 2022.
