 Gaussian 16, Revision C.01,
 Gaussian 16:  ES64L-G16RevC.01  3-Jul-2019

 ---------------------------------------------------------------
 #n M062X/6-311++G(d,p) TD(NStates=1) EmpiricalDispersion=GD3 SP
 ---------------------------------------------------------------

 ------
 SP_125
 ------
 Symbolic Z-matrix:
 Charge =  1 Multiplicity = 1

                         Standard orientation:
 ---------------------------------------------------------------------
 Center     Atomic      Atomic             Coordinates (Angstroms)
 Number     Number       Type             X           Y           Z
 ---------------------------------------------------------------------
      1          6           0        2.463037    1.465097    0.000000
      2          6           0        2.512170    2.852041    0.000000
      3          6           0        1.311044    3.520573    0.000000
      4          6           0        0.058619    2.795095    0.000000
      5          6           0       -2.510024   -1.408910    0.000000
      6          6           0       -2.526000   -2.769825    0.000000
      7          6           0       -1.322420   -3.481076    0.000000
      8          6           0       -0.098975   -2.812728    0.000000
      9          6           0        1.257128   -0.731848    0.000000
     10          6           0       -1.254410    0.687219    0.000000
     11          6           0        1.210308    0.735371    0.000000
     12          6           0       -0.000000    1.415618    0.000000
     13          6           0       -0.058326   -1.447224    0.000000
     14          6           0       -1.277345   -0.704065    0.000000
     15          1           0        3.378979    0.885661    0.000000
     16          1           0        3.453691    3.378614    0.000000
     17          1           0        1.274311    4.601857    0.000000
     18          1           0       -0.858472    3.371693    0.000000
     19          1           0       -2.179372    1.246850    0.000000
     20          1           0       -3.430470   -0.840095    0.000000
     21          1           0       -3.464874   -3.305448    0.000000
     22          1           0       -1.337925   -4.561877    0.000000
     23          1           0        0.821043   -3.384055    0.000000
     24          1           0        1.877130   -1.042615    0.859875
     25          1           0        1.877130   -1.042615   -0.859875
 ---------------------------------------------------------------------

 SCF Done:  E(RM062X) =  -539.751428627     A.U. after   16 cycles

 Excitation energies and oscillator strengths:

 Excited State   1:      Singlet-A'     2.6213 eV  472.99 nm  f=0.0183  <S**2>=0.000
      47 -> 48         0.70346
 This state for optimization and/or second-order correction.
 Total Energy, E(TD-HF/TD-DFT) =  -539.655097886
 Copying the excited state density for this state as the 1-particle RhoCI density.

 The electronic state is 1-A'.
 Alpha  occ. eigenvalues --  -10.77552 -10.73874 -10.72902 -10.72586 -10.72208
 Alpha  occ. eigenvalues --  -10.71942 -10.71861 -10.70990 -10.70721 -10.70265
 Alpha  occ. eigenvalues --  -10.69993 -10.69908 -10.69680 -10.69263  -1.16576
 Alpha  occ. eigenvalues --   -1.12473  -1.06936  -1.05895  -1.01276  -1.00488
 Alpha  occ. eigenvalues --   -0.95498  -0.91016  -0.86450  -0.85886  -0.83763
 Alpha  occ. eigenvalues --   -0.78308  -0.76176  -0.74351  -0.69850  -0.69342
 Alpha  occ. eigenvalues --   -0.68250  -0.68087  -0.68028  -0.65396  -0.64227
 Alpha  occ. eigenvalues --   -0.62676  -0.61489  -0.60555  -0.59181  -0.59169
 Alpha  occ. eigenvalues --   -0.56956  -0.55267  -0.54460  -0.52441  -0.47492
 Alpha  occ. eigenvalues --   -0.46135  -0.43609
 Alpha virt. eigenvalues --   -0.26112  -0.14666  -0.14068  -0.12757  -0.11195
 Alpha virt. eigenvalues --   -0.10096  -0.09269  -0.07952  -0.07912  -0.07487
 Alpha virt. eigenvalues --   -0.07215  -0.07131  -0.05648  -0.05571  -0.05360

 Mulliken charges:
               1
     1  C    0.120717
     2  C   -0.414763
     3  C   -0.444631
     4  C   -0.009596
     5  C    0.031007
     6  C   -0.431111
     7  C   -0.400263
     8  C    0.069304
     9  C   -0.346866
    10  C    0.079604
    11  C   -0.594629
    12  C    0.659281
    13  C   -0.657261
    14  C    0.719519
    15  H    0.234763
    16  H    0.251243
    17  H    0.244894
    18  H    0.218125
    19  H    0.189222
    20  H    0.226236
    21  H    0.252908
    22  H    0.261327
    23  H    0.240413
    24  H    0.250278
    25  H    0.250278
 Sum of Mulliken charges =   1.00000

 Dipole moment (field-independent basis, Debye):
    X=             -0.7863    Y=             -0.9887    Z=              0.0000  Tot=              1.2632
 Quadrupole moment (field-independent basis, Debye-Ang):
   XX=            -49.0525   YY=            -38.1965   ZZ=            -84.1279
   XY=             11.4576   XZ=              0.0000   YZ=             -0.0000

 Normal termination of Gaussian 16 at Wed Jul 27 12:32:51 2022.
