 Gaussian 16, Revision C.01,
 Gaussian 16:  ES64L-G16RevC.01  3-Jul-2019

 ---------------------------------------------------------------
 #n M062X/6-311++G(d,p) TD(NStates=1) EmpiricalDispersion=GD3 SP
 ---------------------------------------------------------------

 ------
 SP_125
 ------
 Symbolic Z-matrix:
 Charge =  1 Multiplicity = 1

                         Standard orientation:
 ---------------------------------------------------------------------
 Center     Atomic      Atomic             Coordinates (Angstroms)
 Number     Number       Type             X           Y           Z
 ---------------------------------------------------------------------
      1          6           0        0.024607    2.860708    0.000000
      2          6           0       -1.138900    3.617523    0.000000
      3          6           0       -2.338105    2.939791    0.000000
      4          6           0       -2.368739    1.502352    0.000000
      5          6           0       -0.094108   -2.867769    0.000000
      6          6           0        1.067835   -3.594671    0.000000
      7          6           0        2.300293   -2.939769    0.000000
      8          6           0        2.358091   -1.548089    0.000000
      9          6           0        1.280945    0.693842    0.000000
     10          6           0       -1.243320   -0.706419    0.000000
     11          6           0        0.000000    1.419839    0.000000
     12          6           0       -1.213799    0.737190    0.000000
     13          6           0        1.203647   -0.799322    0.000000
     14          6           0       -0.060918   -1.452225    0.000000
     15          1           0        0.992206    3.348562    0.000000
     16          1           0       -1.101479    4.695866    0.000000
     17          1           0       -3.278285    3.474372    0.000000
     18          1           0       -3.334717    1.012555    0.000000
     19          1           0       -2.200536   -1.208777    0.000000
     20          1           0       -1.055573   -3.364229    0.000000
     21          1           0        1.032312   -4.674839    0.000000
     22          1           0        3.216239   -3.513237    0.000000
     23          1           0        3.321136   -1.052745    0.000000
     24          1           0        1.871760    1.052296    0.860425
     25          1           0        1.871760    1.052296   -0.860425
 ---------------------------------------------------------------------

 SCF Done:  E(RM062X) =  -539.754932210     A.U. after   15 cycles

 Excitation energies and oscillator strengths:

 Excited State   1:      Singlet-A'     2.6860 eV  461.60 nm  f=0.0203  <S**2>=0.000
      47 -> 48         0.70355
 This state for optimization and/or second-order correction.
 Total Energy, E(TD-HF/TD-DFT) =  -539.656224007
 Copying the excited state density for this state as the 1-particle RhoCI density.

 The electronic state is 1-A'.
 Alpha  occ. eigenvalues --  -10.77603 -10.73754 -10.72815 -10.72746 -10.72002
 Alpha  occ. eigenvalues --  -10.71931 -10.71825 -10.70994 -10.70871 -10.70201
 Alpha  occ. eigenvalues --  -10.70136 -10.69918 -10.69745 -10.69349  -1.16508
 Alpha  occ. eigenvalues --   -1.12460  -1.06939  -1.05804  -1.01290  -1.00359
 Alpha  occ. eigenvalues --   -0.95602  -0.91027  -0.86437  -0.85887  -0.83779
 Alpha  occ. eigenvalues --   -0.78341  -0.76106  -0.74373  -0.69755  -0.69305
 Alpha  occ. eigenvalues --   -0.68333  -0.68097  -0.68079  -0.65183  -0.64232
 Alpha  occ. eigenvalues --   -0.62774  -0.61627  -0.60413  -0.59305  -0.59154
 Alpha  occ. eigenvalues --   -0.56929  -0.55263  -0.54581  -0.52442  -0.47192
 Alpha  occ. eigenvalues --   -0.46120  -0.43904
 Alpha virt. eigenvalues --   -0.26109  -0.14666  -0.14080  -0.12765  -0.11188
 Alpha virt. eigenvalues --   -0.10090  -0.09254  -0.07964  -0.07937  -0.07482
 Alpha virt. eigenvalues --   -0.07208  -0.07136  -0.05647  -0.05574  -0.05348

 Mulliken charges:
               1
     1  C    0.113149
     2  C   -0.412503
     3  C   -0.444092
     4  C   -0.007011
     5  C    0.024480
     6  C   -0.433319
     7  C   -0.401553
     8  C    0.073477
     9  C   -0.348140
    10  C    0.081357
    11  C   -0.604198
    12  C    0.672498
    13  C   -0.652542
    14  C    0.719161
    15  H    0.235373
    16  H    0.252309
    17  H    0.245747
    18  H    0.218963
    19  H    0.189762
    20  H    0.225290
    21  H    0.251992
    22  H    0.260196
    23  H    0.239815
    24  H    0.249895
    25  H    0.249895
 Sum of Mulliken charges =   1.00000

 Dipole moment (field-independent basis, Debye):
    X=              0.3003    Y=             -0.9462    Z=              0.0000  Tot=              0.9927
 Quadrupole moment (field-independent basis, Debye-Ang):
   XX=            -51.1515   YY=            -36.1390   ZZ=            -84.1340
   XY=            -10.1767   XZ=              0.0000   YZ=              0.0000

 Normal termination of Gaussian 16 at Wed Jul 27 12:35:56 2022.
