 Gaussian 16, Revision C.01,
 Gaussian 16:  ES64L-G16RevC.01  3-Jul-2019

 ---------------------------------------------------------------
 #n M062X/6-311++G(d,p) TD(NStates=1) EmpiricalDispersion=GD3 SP
 ---------------------------------------------------------------

 ------
 SP_-25
 ------
 Symbolic Z-matrix:
 Charge =  1 Multiplicity = 1

                         Standard orientation:
 ---------------------------------------------------------------------
 Center     Atomic      Atomic             Coordinates (Angstroms)
 Number     Number       Type             X           Y           Z
 ---------------------------------------------------------------------
      1          6           0       -2.363609   -1.550070    0.000000
      2          6           0       -2.312225   -2.941267    0.000000
      3          6           0       -1.080478   -3.591797    0.000000
      4          6           0        0.088905   -2.858746    0.000000
      5          6           0        2.379076    1.503195    0.000000
      6          6           0        2.347632    2.930990    0.000000
      7          6           0        1.144452    3.606802    0.000000
      8          6           0       -0.023086    2.854995    0.000000
      9          6           0       -1.281684    0.692401    0.000000
     10          6           0        1.247910   -0.697620    0.000000
     11          6           0       -1.200700   -0.797277    0.000000
     12          6           0        0.060322   -1.447472    0.000000
     13          6           0        0.000000    1.423400    0.000000
     14          6           0        1.218022    0.739397    0.000000
     15          1           0       -3.323642   -1.048842    0.000000
     16          1           0       -3.228628   -3.513554    0.000000
     17          1           0       -1.039377   -4.671726    0.000000
     18          1           0        1.047681   -3.360581    0.000000
     19          1           0        2.203816   -1.202460    0.000000
     20          1           0        3.342155    1.008133    0.000000
     21          1           0        3.284813    3.470280    0.000000
     22          1           0        1.108262    4.685424    0.000000
     23          1           0       -0.987553    3.348670    0.000000
     24          1           0       -1.877369    1.041536    0.860425
     25          1           0       -1.877369    1.041536   -0.860425
 ---------------------------------------------------------------------

 SCF Done:  E(RM062X) =  -539.757534374     A.U. after   15 cycles

 Excitation energies and oscillator strengths:

 Excited State   1:      Singlet-A'     2.7448 eV  451.70 nm  f=0.0231  <S**2>=0.000
      47 -> 48         0.70370
 This state for optimization and/or second-order correction.
 Total Energy, E(TD-HF/TD-DFT) =  -539.656664149
 Copying the excited state density for this state as the 1-particle RhoCI density.

 The electronic state is 1-A'.
 Alpha  occ. eigenvalues --  -10.77638 -10.73616 -10.72893 -10.72716 -10.72134
 Alpha  occ. eigenvalues --  -10.71701 -10.71660 -10.71018 -10.70992 -10.70375
 Alpha  occ. eigenvalues --  -10.70136 -10.69838 -10.69809 -10.69430  -1.16467
 Alpha  occ. eigenvalues --   -1.12457  -1.06942  -1.05752  -1.01301  -1.00266
 Alpha  occ. eigenvalues --   -0.95688  -0.91037  -0.86427  -0.85890  -0.83795
 Alpha  occ. eigenvalues --   -0.78367  -0.76060  -0.74393  -0.69670  -0.69275
 Alpha  occ. eigenvalues --   -0.68408  -0.68128  -0.68102  -0.64993  -0.64245
 Alpha  occ. eigenvalues --   -0.62881  -0.61743  -0.60269  -0.59438  -0.59127
 Alpha  occ. eigenvalues --   -0.56910  -0.55252  -0.54689  -0.52441  -0.46933
 Alpha  occ. eigenvalues --   -0.46101  -0.44165
 Alpha virt. eigenvalues --   -0.26102  -0.14666  -0.14089  -0.12770  -0.11183
 Alpha virt. eigenvalues --   -0.10087  -0.09242  -0.07973  -0.07955  -0.07479
 Alpha virt. eigenvalues --   -0.07204  -0.07140  -0.05645  -0.05577  -0.05340

 Mulliken charges:
               1
     1  C    0.078501
     2  C   -0.402903
     3  C   -0.435505
     4  C    0.020821
     5  C   -0.002061
     6  C   -0.443158
     7  C   -0.410741
     8  C    0.106969
     9  C   -0.345196
    10  C    0.084931
    11  C   -0.648049
    12  C    0.713021
    13  C   -0.614676
    14  C    0.678927
    15  H    0.239121
    16  H    0.259079
    17  H    0.251102
    18  H    0.224349
    19  H    0.190119
    20  H    0.219794
    21  H    0.246630
    22  H    0.253429
    23  H    0.235924
    24  H    0.249786
    25  H    0.249786
 Sum of Mulliken charges =   1.00000

 Dipole moment (field-independent basis, Debye):
    X=             -0.1657    Y=             -0.7037    Z=             -0.0000  Tot=              0.7229
 Quadrupole moment (field-independent basis, Debye-Ang):
   XX=            -51.0086   YY=            -36.3194   ZZ=            -84.1382
   XY=             10.2566   XZ=             -0.0000   YZ=              0.0000

 Normal termination of Gaussian 16 at Wed Jul 27 11:08:50 2022.
