 Gaussian 16, Revision C.01,
 Gaussian 16:  ES64L-G16RevC.01  3-Jul-2019

 ---------------------------------------------------------------
 #n M062X/6-311++G(d,p) TD(NStates=1) EmpiricalDispersion=GD3 SP
 ---------------------------------------------------------------

 -------
 SP_-100
 -------
 Symbolic Z-matrix:
 Charge =  1 Multiplicity = 1

                         Standard orientation:
 ---------------------------------------------------------------------
 Center     Atomic      Atomic             Coordinates (Angstroms)
 Number     Number       Type             X           Y           Z
 ---------------------------------------------------------------------
      1          6           0        0.098978   -2.812729    0.000000
      2          6           0        1.322423   -3.481077    0.000000
      3          6           0        2.526003   -2.769824    0.000000
      4          6           0        2.510026   -1.408910    0.000000
      5          6           0       -0.058619    2.795093    0.000000
      6          6           0       -1.311046    3.520571    0.000000
      7          6           0       -2.512171    2.852038    0.000000
      8          6           0       -2.463037    1.465095    0.000000
      9          6           0       -1.257140   -0.731828    0.000000
     10          6           0        1.254410    0.687219    0.000000
     11          6           0        0.058328   -1.447225    0.000000
     12          6           0        1.277347   -0.704065    0.000000
     13          6           0       -1.210307    0.735368    0.000000
     14          6           0        0.000000    1.415616    0.000000
     15          1           0       -0.821040   -3.384057    0.000000
     16          1           0        1.337929   -4.561878    0.000000
     17          1           0        3.464877   -3.305447    0.000000
     18          1           0        3.430471   -0.840095    0.000000
     19          1           0        2.179373    1.246850    0.000000
     20          1           0        0.858471    3.371692    0.000000
     21          1           0       -1.274313    4.601855    0.000000
     22          1           0       -3.453692    3.378611    0.000000
     23          1           0       -3.378979    0.885658    0.000000
     24          1           0       -1.877129   -1.042618    0.859875
     25          1           0       -1.877129   -1.042618   -0.859875
 ---------------------------------------------------------------------

 SCF Done:  E(RM062X) =  -539.751428339     A.U. after   16 cycles

 Excitation energies and oscillator strengths:

 Excited State   1:      Singlet-A'     2.6213 eV  472.99 nm  f=0.0183  <S**2>=0.000
      47 -> 48         0.70346
 This state for optimization and/or second-order correction.
 Total Energy, E(TD-HF/TD-DFT) =  -539.655097783
 Copying the excited state density for this state as the 1-particle RhoCI density.

 The electronic state is 1-A'.
 Alpha  occ. eigenvalues --  -10.77552 -10.73874 -10.72902 -10.72585 -10.72208
 Alpha  occ. eigenvalues --  -10.71942 -10.71861 -10.70990 -10.70721 -10.70265
 Alpha  occ. eigenvalues --  -10.69993 -10.69908 -10.69680 -10.69263  -1.16576
 Alpha  occ. eigenvalues --   -1.12473  -1.06936  -1.05895  -1.01276  -1.00488
 Alpha  occ. eigenvalues --   -0.95498  -0.91016  -0.86450  -0.85886  -0.83763
 Alpha  occ. eigenvalues --   -0.78308  -0.76175  -0.74351  -0.69850  -0.69342
 Alpha  occ. eigenvalues --   -0.68250  -0.68087  -0.68028  -0.65396  -0.64227
 Alpha  occ. eigenvalues --   -0.62676  -0.61489  -0.60555  -0.59181  -0.59168
 Alpha  occ. eigenvalues --   -0.56956  -0.55268  -0.54460  -0.52441  -0.47492
 Alpha  occ. eigenvalues --   -0.46135  -0.43609
 Alpha virt. eigenvalues --   -0.26112  -0.14666  -0.14068  -0.12757  -0.11195
 Alpha virt. eigenvalues --   -0.10096  -0.09269  -0.07952  -0.07912  -0.07487
 Alpha virt. eigenvalues --   -0.07215  -0.07131  -0.05648  -0.05571  -0.05360

 Mulliken charges:
               1
     1  C    0.069315
     2  C   -0.400255
     3  C   -0.431111
     4  C    0.031014
     5  C   -0.009600
     6  C   -0.444632
     7  C   -0.414770
     8  C    0.120705
     9  C   -0.346866
    10  C    0.079604
    11  C   -0.657245
    12  C    0.719508
    13  C   -0.594639
    14  C    0.659285
    15  H    0.240413
    16  H    0.261327
    17  H    0.252908
    18  H    0.226237
    19  H    0.189222
    20  H    0.218125
    21  H    0.244894
    22  H    0.251243
    23  H    0.234763
    24  H    0.250278
    25  H    0.250278
 Sum of Mulliken charges =   1.00000

 Dipole moment (field-independent basis, Debye):
    X=              0.7863    Y=             -0.9887    Z=              0.0000  Tot=              1.2633
 Quadrupole moment (field-independent basis, Debye-Ang):
   XX=            -49.0525   YY=            -38.1965   ZZ=            -84.1279
   XY=            -11.4576   XZ=              0.0000   YZ=              0.0000

 Normal termination of Gaussian 16 at Wed Jul 27 10:20:33 2022.
