 Gaussian 16, Revision C.01,
 Gaussian 16:  ES64L-G16RevC.01  3-Jul-2019

 ---------------------------------------------------------------
 #n M062X/6-311++G(d,p) TD(NStates=1) EmpiricalDispersion=GD3 SP
 ---------------------------------------------------------------

 ------
 SP_-25
 ------
 Symbolic Z-matrix:
 Charge =  1 Multiplicity = 1

                         Standard orientation:
 ---------------------------------------------------------------------
 Center     Atomic      Atomic             Coordinates (Angstroms)
 Number     Number       Type             X           Y           Z
 ---------------------------------------------------------------------
      1          6           0        2.494762   -1.349921    0.000000
      2          6           0        3.700110   -0.654318    0.000000
      3          6           0        3.679552    0.732581    0.000000
      4          6           0        2.461036    1.420484    0.000000
      5          6           0       -2.465248    1.394593    0.000000
      6          6           0       -3.687852    0.694465    0.000000
      7          6           0       -3.702330   -0.689910    0.000000
      8          6           0       -2.489642   -1.371213    0.000000
      9          6           0        0.004207   -1.452311    0.000000
     10          6           0        0.000000    1.429148    0.000000
     11          6           0        1.265995   -0.673438    0.000000
     12          6           0        1.237012    0.736525    0.000000
     13          6           0       -1.258123   -0.680547    0.000000
     14          6           0       -1.238162    0.725203    0.000000
     15          1           0        2.497155   -2.433096    0.000000
     16          1           0        4.637641   -1.190386    0.000000
     17          1           0        4.604488    1.291918    0.000000
     18          1           0        2.458671    2.502934    0.000000
     19          1           0       -0.005158    2.510261    0.000000
     20          1           0       -2.476413    2.477130    0.000000
     21          1           0       -4.613877    1.252209    0.000000
     22          1           0       -4.635284   -1.233432    0.000000
     23          1           0       -2.477900   -2.454423    0.000000
     24          1           0        0.001386   -2.145580    0.859325
     25          1           0        0.001386   -2.145580   -0.859325
 ---------------------------------------------------------------------

 SCF Done:  E(RM062X) =  -539.760107462     A.U. after   15 cycles

 Excitation energies and oscillator strengths:

 Excited State   1:      Singlet-A'     2.8190 eV  439.82 nm  f=0.0284  <S**2>=0.000
      47 -> 48         0.70422
 This state for optimization and/or second-order correction.
 Total Energy, E(TD-HF/TD-DFT) =  -539.656511219
 Copying the excited state density for this state as the 1-particle RhoCI density.

 The electronic state is 1-A'.
 Alpha  occ. eigenvalues --  -10.77663 -10.73306 -10.73161 -10.72491 -10.72374
 Alpha  occ. eigenvalues --  -10.71437 -10.71299 -10.71135 -10.70977 -10.70877
 Alpha  occ. eigenvalues --  -10.70004 -10.69939 -10.69669 -10.69587  -1.16450
 Alpha  occ. eigenvalues --   -1.12470  -1.06945  -1.05741  -1.01313  -1.00196
 Alpha  occ. eigenvalues --   -0.95777  -0.91058  -0.86420  -0.85903  -0.83819
 Alpha  occ. eigenvalues --   -0.78398  -0.76035  -0.74418  -0.69562  -0.69248
 Alpha  occ. eigenvalues --   -0.68502  -0.68194  -0.68099  -0.64753  -0.64285
 Alpha  occ. eigenvalues --   -0.63065  -0.61863  -0.60013  -0.59666  -0.59091
 Alpha  occ. eigenvalues --   -0.56902  -0.55216  -0.54836  -0.52438  -0.46642
 Alpha  occ. eigenvalues --   -0.46060  -0.44482
 Alpha virt. eigenvalues --   -0.26086  -0.14670  -0.14096  -0.12773  -0.11180
 Alpha virt. eigenvalues --   -0.10087  -0.09230  -0.07983  -0.07968  -0.07476
 Alpha virt. eigenvalues --   -0.07204  -0.07146  -0.05643  -0.05582  -0.05333

 Mulliken charges:
               1
     1  C    0.090409
     2  C   -0.406003
     3  C   -0.439367
     4  C    0.018527
     5  C    0.013603
     6  C   -0.440790
     7  C   -0.407625
     8  C    0.096302
     9  C   -0.331873
    10  C    0.094429
    11  C   -0.640165
    12  C    0.687269
    13  C   -0.634182
    14  C    0.679807
    15  H    0.237556
    16  H    0.256901
    17  H    0.249366
    18  H    0.222460
    19  H    0.190365
    20  H    0.221525
    21  H    0.248469
    22  H    0.255769
    23  H    0.236912
    24  H    0.250169
    25  H    0.250169
 Sum of Mulliken charges =   1.00000

 Dipole moment (field-independent basis, Debye):
    X=              0.1392    Y=              0.1874    Z=              0.0000  Tot=              0.2334
 Quadrupole moment (field-independent basis, Debye-Ang):
   XX=            -31.1223   YY=            -56.2596   ZZ=            -84.1417
   XY=              0.1767   XZ=             -0.0000   YZ=             -0.0000

 Normal termination of Gaussian 16 at Wed Jul 27 11:02:04 2022.
