 Gaussian 16, Revision C.01,
 Gaussian 16:  ES64L-G16RevC.01  3-Jul-2019

 ----------------------------------------------
 #n M062X/cc-pvtz TD EmpiricalDispersion=GD3 SP
 ----------------------------------------------

 -----
 SP_-5
 -----
 Symbolic Z-matrix:
 Charge =  1 Multiplicity = 1

                         Standard orientation:
 ---------------------------------------------------------------------
 Center     Atomic      Atomic             Coordinates (Angstroms)
 Number     Number       Type             X           Y           Z
 ---------------------------------------------------------------------
      1          6           0        0.000000    2.492700   -1.438995
      2          6           0       -0.040000    3.701500   -0.760595
      3          6           0       -0.080000    3.683900    0.670205
      4          6           0       -0.040000    2.463200    1.509005
      5          6           0        0.040000   -2.463200    1.509005
      6          6           0        0.080000   -3.683900    0.670205
      7          6           0        0.040000   -3.701500   -0.760595
      8          6           0       -0.000000   -2.492700   -1.438995
      9          6           0        0.000000    0.000000   -1.491995
     10          6           0       -0.000000   -0.000000    1.575605
     11          6           0        0.055000    1.262100   -0.630595
     12          6           0       -0.005000    1.237500    0.777205
     13          6           0       -0.055000   -1.262100   -0.630595
     14          6           0        0.005000   -1.237500    0.777205
     15          1           0        0.000000    2.488100   -2.467195
     16          1           0       -0.035000    4.636800   -1.300295
     17          1           0       -0.010000    4.609300    1.268805
     18          1           0       -0.040000    2.467500    2.536505
     19          1           0       -0.000000   -0.000000    2.636705
     20          1           0        0.040000   -2.467500    2.536505
     21          1           0        0.010000   -4.609300    1.268805
     22          1           0        0.035000   -4.636800   -1.300295
     23          1           0       -0.000000   -2.488100   -2.467195
     24          1           0        0.859600    0.000000   -2.364395
     25          1           0       -0.859600    0.000000   -2.364395
 ---------------------------------------------------------------------

 SCF Done:  E(RM062X) =  -539.724270510     A.U. after   15 cycles

 Excitation energies and oscillator strengths:

 Excited State   1:      Singlet-A      2.3608 eV  525.18 nm  f=0.0270  <S**2>=0.000
      47 -> 48         0.70471
 This state for optimization and/or second-order correction.
 Total Energy, E(TD-HF/TD-DFT) =  -539.637512474
 Copying the excited state density for this state as the 1-particle RhoCI density.

 Excited State   2:      Singlet-B      2.7200 eV  455.83 nm  f=0.0101  <S**2>=0.000
      45 -> 48        -0.15244
      46 -> 48         0.68728

 Excited State   3:      Singlet-B      3.2885 eV  377.03 nm  f=0.4029  <S**2>=0.000
      45 -> 48         0.68189
      46 -> 48         0.14801

 The electronic state is 1-A.
 Alpha  occ. eigenvalues --  -10.78924 -10.74394 -10.74393 -10.73615 -10.73365
 Alpha  occ. eigenvalues --  -10.73364 -10.71601 -10.71601 -10.71084 -10.71084
 Alpha  occ. eigenvalues --  -10.70771 -10.70771 -10.70270 -10.70270  -1.14382
 Alpha  occ. eigenvalues --   -1.10358  -1.05534  -1.03218  -1.01011  -0.97735
 Alpha  occ. eigenvalues --   -0.94861  -0.88834  -0.86694  -0.84793  -0.83787
 Alpha  occ. eigenvalues --   -0.77327  -0.74267  -0.73784  -0.70566  -0.69983
 Alpha  occ. eigenvalues --   -0.68314  -0.67038  -0.65391  -0.64596  -0.64422
 Alpha  occ. eigenvalues --   -0.61754  -0.59254  -0.58169  -0.58134  -0.57752
 Alpha  occ. eigenvalues --   -0.56994  -0.56894  -0.51905  -0.51412  -0.46323
 Alpha  occ. eigenvalues --   -0.44648  -0.43001
 Alpha virt. eigenvalues --   -0.26425  -0.15971  -0.14281  -0.13343  -0.07758
 Alpha virt. eigenvalues --   -0.06550  -0.05692  -0.04001  -0.02697  -0.02548
 Alpha virt. eigenvalues --   -0.01677   0.00228   0.00375   0.00844   0.02182

 Mulliken charges:
               1
     1  C   -0.112383
     2  C   -0.039450
     3  C   -0.113110
     4  C   -0.115763
     5  C   -0.115763
     6  C   -0.113110
     7  C   -0.039450
     8  C   -0.112383
     9  C   -0.298667
    10  C   -0.028681
    11  C    0.080245
    12  C    0.044880
    13  C    0.080245
    14  C    0.044880
    15  H    0.163830
    16  H    0.157049
    17  H    0.146358
    18  H    0.163435
    19  H    0.177629
    20  H    0.163435
    21  H    0.146358
    22  H    0.157049
    23  H    0.163830
    24  H    0.199768
    25  H    0.199768
 Sum of Mulliken charges =   1.00000

 Dipole moment (field-independent basis, Debye):
    X=             -0.0000    Y=             -0.0000    Z=              0.0465  Tot=              0.0465
 Quadrupole moment (field-independent basis, Debye-Ang):
   XX=            -84.9611   YY=            -34.6057   ZZ=            -51.9171
   XY=              0.1039   XZ=              0.0000   YZ=             -0.0000

 Normal termination of Gaussian 16 at Tue Jul 26 12:24:54 2022.
