 Gaussian 16, Revision C.01,
 Gaussian 16:  ES64L-G16RevC.01  3-Jul-2019

 ----------------------------------------------
 #n M062X/cc-pvtz TD EmpiricalDispersion=GD3 SP
 ----------------------------------------------

 ----
 SP_1
 ----
 Symbolic Z-matrix:
 Charge =  1 Multiplicity = 1

                         Standard orientation:
 ---------------------------------------------------------------------
 Center     Atomic      Atomic             Coordinates (Angstroms)
 Number     Number       Type             X           Y           Z
 ---------------------------------------------------------------------
      1          6           0        0.000000    2.492700    1.344700
      2          6           0       -0.008000    3.701500    0.654300
      3          6           0       -0.016000    3.683900   -0.722500
      4          6           0       -0.008000    2.463200   -1.387300
      5          6           0        0.008000   -2.463200   -1.387300
      6          6           0        0.016000   -3.683900   -0.722500
      7          6           0        0.008000   -3.701500    0.654300
      8          6           0       -0.000000   -2.492700    1.344700
      9          6           0        0.000000    0.000000    1.445700
     10          6           0        0.000000   -0.000000   -1.399900
     11          6           0        0.011000    1.262100    0.686300
     12          6           0       -0.001000    1.237500   -0.721500
     13          6           0       -0.011000   -1.262100    0.686300
     14          6           0        0.001000   -1.237500   -0.721500
     15          1           0        0.000000    2.488100    2.438900
     16          1           0       -0.007000    4.636800    1.194000
     17          1           0       -0.002000    4.609300   -1.273100
     18          1           0       -0.008000    2.467500   -2.480800
     19          1           0        0.000000   -0.000000   -2.485000
     20          1           0        0.008000   -2.467500   -2.480800
     21          1           0        0.002000   -4.609300   -1.273100
     22          1           0        0.007000   -4.636800    1.194000
     23          1           0       -0.000000   -2.488100    2.438900
     24          1           0       -0.859600   -0.000000    2.102100
     25          1           0        0.859600   -0.000000    2.102100
 ---------------------------------------------------------------------

 SCF Done:  E(RM062X) =  -539.815706363     A.U. after   14 cycles

 Excitation energies and oscillator strengths:

 Excited State   1:      Singlet-A      2.9049 eV  426.81 nm  f=0.0275  <S**2>=0.000
      47 -> 48         0.70400
 This state for optimization and/or second-order correction.
 Total Energy, E(TD-HF/TD-DFT) =  -539.708952887
 Copying the excited state density for this state as the 1-particle RhoCI density.

 Excited State   2:      Singlet-B      3.3660 eV  368.34 nm  f=0.0001  <S**2>=0.000
      45 -> 48         0.69362
      46 -> 48        -0.10342

 Excited State   3:      Singlet-B      3.5219 eV  352.04 nm  f=0.5761  <S**2>=0.000
      45 -> 48         0.10688
      46 -> 48         0.69012

 The electronic state is 1-A.
 Alpha  occ. eigenvalues --  -10.77263 -10.72866 -10.72866 -10.72061 -10.72060
 Alpha  occ. eigenvalues --  -10.71187 -10.71186 -10.70899 -10.70899 -10.70305
 Alpha  occ. eigenvalues --  -10.69767 -10.69767 -10.69312 -10.69312  -1.16652
 Alpha  occ. eigenvalues --   -1.12700  -1.07153  -1.05970  -1.01220  -1.00483
 Alpha  occ. eigenvalues --   -0.95811  -0.91305  -0.86102  -0.86014  -0.83575
 Alpha  occ. eigenvalues --   -0.78479  -0.76152  -0.74156  -0.69687  -0.69074
 Alpha  occ. eigenvalues --   -0.68877  -0.68038  -0.67984  -0.64392  -0.63592
 Alpha  occ. eigenvalues --   -0.63437  -0.61594  -0.60450  -0.59970  -0.59170
 Alpha  occ. eigenvalues --   -0.56349  -0.55111  -0.54392  -0.52625  -0.46821
 Alpha  occ. eigenvalues --   -0.46092  -0.44715
 Alpha virt. eigenvalues --   -0.25892  -0.14068  -0.14008  -0.12262  -0.06709
 Alpha virt. eigenvalues --   -0.05488  -0.05227  -0.04132  -0.02693  -0.01618
 Alpha virt. eigenvalues --    0.00138   0.00390   0.00586   0.02100   0.02186

 Mulliken charges:
               1
     1  C   -0.101545
     2  C   -0.027964
     3  C   -0.121286
     4  C   -0.056587
     5  C   -0.056587
     6  C   -0.121286
     7  C   -0.027964
     8  C   -0.101545
     9  C   -0.317115
    10  C   -0.074943
    11  C    0.110793
    12  C    0.060893
    13  C    0.110793
    14  C    0.060893
    15  H    0.132199
    16  H    0.146625
    17  H    0.142247
    18  H    0.126506
    19  H    0.157449
    20  H    0.126506
    21  H    0.142247
    22  H    0.146625
    23  H    0.132199
    24  H    0.205422
    25  H    0.205422
 Sum of Mulliken charges =   1.00000

 Dipole moment (field-independent basis, Debye):
    X=             -0.0000    Y=              0.0000    Z=             -0.2269  Tot=              0.2269
 Quadrupole moment (field-independent basis, Debye-Ang):
   XX=            -83.0639   YY=            -30.1973   ZZ=            -57.3125
   XY=              0.0097   XZ=             -0.0000   YZ=             -0.0000

 Normal termination of Gaussian 16 at Tue Jul 26 13:04:07 2022.
