 Gaussian 16, Revision C.01,
 Gaussian 16:  ES64L-G16RevC.01  3-Jul-2019

 ----------------------------------------------
 #n M062X/cc-pvtz TD EmpiricalDispersion=GD3 SP
 ----------------------------------------------

 ----
 SP_3
 ----
 Symbolic Z-matrix:
 Charge =  1 Multiplicity = 1

                         Standard orientation:
 ---------------------------------------------------------------------
 Center     Atomic      Atomic             Coordinates (Angstroms)
 Number     Number       Type             X           Y           Z
 ---------------------------------------------------------------------
      1          6           0        0.000000    2.492700    1.313268
      2          6           0       -0.024000    3.701500    0.618868
      3          6           0       -0.048000    3.683900   -0.739932
      4          6           0       -0.024000    2.463200   -1.346732
      5          6           0        0.024000   -2.463200   -1.346732
      6          6           0        0.048000   -3.683900   -0.739932
      7          6           0        0.024000   -3.701500    0.618868
      8          6           0       -0.000000   -2.492700    1.313268
      9          6           0        0.000000    0.000000    1.430268
     10          6           0       -0.000000   -0.000000   -1.341332
     11          6           0        0.033000    1.262100    0.704868
     12          6           0       -0.003000    1.237500   -0.702932
     13          6           0       -0.033000   -1.262100    0.704868
     14          6           0        0.003000   -1.237500   -0.702932
     15          1           0        0.000000    2.488100    2.429468
     16          1           0       -0.021000    4.636800    1.158568
     17          1           0       -0.006000    4.609300   -1.274532
     18          1           0       -0.024000    2.467500   -2.462232
     19          1           0       -0.000000   -0.000000   -2.434432
     20          1           0        0.024000   -2.467500   -2.462232
     21          1           0        0.006000   -4.609300   -1.274532
     22          1           0        0.021000   -4.636800    1.158568
     23          1           0       -0.000000   -2.488100    2.429468
     24          1           0       -0.859600    0.000000    2.014668
     25          1           0        0.859600   -0.000000    2.014668
 ---------------------------------------------------------------------

 SCF Done:  E(RM062X) =  -539.795613717     A.U. after   14 cycles

 Excitation energies and oscillator strengths:

 Excited State   1:      Singlet-A      3.0570 eV  405.58 nm  f=0.0268  <S**2>=0.000
      47 -> 48         0.70370
 This state for optimization and/or second-order correction.
 Total Energy, E(TD-HF/TD-DFT) =  -539.683272828
 Copying the excited state density for this state as the 1-particle RhoCI density.

 Excited State   2:      Singlet-B      3.5237 eV  351.86 nm  f=0.2218  <S**2>=0.000
      45 -> 48         0.52750
      46 -> 48        -0.46302

 Excited State   3:      Singlet-B      3.6234 eV  342.17 nm  f=0.3994  <S**2>=0.000
      45 -> 48         0.45941
      46 -> 48         0.52259

 The electronic state is 1-A.
 Alpha  occ. eigenvalues --  -10.76730 -10.72407 -10.72406 -10.71691 -10.71690
 Alpha  occ. eigenvalues --  -10.71125 -10.71124 -10.70889 -10.70889 -10.69642
 Alpha  occ. eigenvalues --  -10.69641 -10.69283 -10.68924 -10.68924  -1.17468
 Alpha  occ. eigenvalues --   -1.13556  -1.08108  -1.06601  -1.01736  -1.00999
 Alpha  occ. eigenvalues --   -0.96193  -0.92148  -0.86571  -0.85857  -0.83512
 Alpha  occ. eigenvalues --   -0.78991  -0.76824  -0.74070  -0.70829  -0.70684
 Alpha  occ. eigenvalues --   -0.69121  -0.68126  -0.67144  -0.65362  -0.63258
 Alpha  occ. eigenvalues --   -0.62572  -0.61476  -0.61369  -0.60537  -0.59617
 Alpha  occ. eigenvalues --   -0.56273  -0.55451  -0.53096  -0.53044  -0.47460
 Alpha  occ. eigenvalues --   -0.46139  -0.45244
 Alpha virt. eigenvalues --   -0.25781  -0.14145  -0.13393  -0.11859  -0.06466
 Alpha virt. eigenvalues --   -0.05492  -0.05001  -0.04293  -0.02740  -0.01606
 Alpha virt. eigenvalues --    0.00363   0.00569   0.00660   0.01889   0.02399

 Mulliken charges:
               1
     1  C   -0.107480
     2  C   -0.022503
     3  C   -0.123739
     4  C   -0.050236
     5  C   -0.050236
     6  C   -0.123739
     7  C   -0.022503
     8  C   -0.107480
     9  C   -0.342555
    10  C   -0.087617
    11  C    0.126569
    12  C    0.073523
    13  C    0.126569
    14  C    0.073523
    15  H    0.123559
    16  H    0.144922
    17  H    0.142037
    18  H    0.118708
    19  H    0.153094
    20  H    0.118708
    21  H    0.142037
    22  H    0.144922
    23  H    0.123559
    24  H    0.213177
    25  H    0.213177
 Sum of Mulliken charges =   1.00000

 Dipole moment (field-independent basis, Debye):
    X=              0.0000    Y=             -0.0000    Z=             -0.2901  Tot=              0.2901
 Quadrupole moment (field-independent basis, Debye-Ang):
   XX=            -82.4638   YY=            -28.6670   ZZ=            -59.1319
   XY=              0.0139   XZ=              0.0000   YZ=              0.0000

 Normal termination of Gaussian 16 at Tue Jul 26 13:18:34 2022.
