 Gaussian 16, Revision C.01,
 Gaussian 16:  ES64L-G16RevC.01  3-Jul-2019

 ----------------------------------------------
 #n M062X/cc-pvtz TD EmpiricalDispersion=GD3 SP
 ----------------------------------------------

 -----
 SP_-2
 -----
 Symbolic Z-matrix:
 Charge =  1 Multiplicity = 1

                         Standard orientation:
 ---------------------------------------------------------------------
 Center     Atomic      Atomic             Coordinates (Angstroms)
 Number     Number       Type             X           Y           Z
 ---------------------------------------------------------------------
      1          6           0        0.000000    2.492700   -1.391847
      2          6           0       -0.016000    3.701500   -0.707447
      3          6           0       -0.032000    3.683900    0.696353
      4          6           0       -0.016000    2.463200    1.448153
      5          6           0        0.016000   -2.463200    1.448153
      6          6           0        0.032000   -3.683900    0.696353
      7          6           0        0.016000   -3.701500   -0.707447
      8          6           0       -0.000000   -2.492700   -1.391847
      9          6           0        0.000000   -0.000000   -1.468847
     10          6           0       -0.000000    0.000000    1.487753
     11          6           0        0.022000    1.262100   -0.658447
     12          6           0       -0.002000    1.237500    0.749353
     13          6           0       -0.022000   -1.262100   -0.658447
     14          6           0        0.002000   -1.237500    0.749353
     15          1           0        0.000000    2.488100   -2.453047
     16          1           0       -0.014000    4.636800   -1.247147
     17          1           0       -0.004000    4.609300    1.270953
     18          1           0       -0.016000    2.467500    2.508653
     19          1           0       -0.000000    0.000000    2.560853
     20          1           0        0.016000   -2.467500    2.508653
     21          1           0        0.004000   -4.609300    1.270953
     22          1           0        0.014000   -4.636800   -1.247147
     23          1           0       -0.000000   -2.488100   -2.453047
     24          1           0        0.859600   -0.000000   -2.233247
     25          1           0       -0.859600    0.000000   -2.233247
 ---------------------------------------------------------------------

 SCF Done:  E(RM062X) =  -539.797055396     A.U. after   14 cycles

 Excitation energies and oscillator strengths:

 Excited State   1:      Singlet-A      2.6464 eV  468.49 nm  f=0.0277  <S**2>=0.000
      47 -> 48         0.70445
 This state for optimization and/or second-order correction.
 Total Energy, E(TD-HF/TD-DFT) =  -539.699800560
 Copying the excited state density for this state as the 1-particle RhoCI density.

 Excited State   2:      Singlet-B      3.0502 eV  406.48 nm  f=0.0105  <S**2>=0.000
      45 -> 48         0.32636
      46 -> 48         0.62203

 Excited State   3:      Singlet-B      3.4105 eV  363.54 nm  f=0.4845  <S**2>=0.000
      45 -> 48         0.62016
      46 -> 48        -0.32136

 The electronic state is 1-A.
 Alpha  occ. eigenvalues --  -10.78091 -10.73613 -10.73612 -10.72682 -10.72682
 Alpha  occ. eigenvalues --  -10.71940 -10.71360 -10.71360 -10.70965 -10.70965
 Alpha  occ. eigenvalues --  -10.70002 -10.70002 -10.69995 -10.69995  -1.15491
 Alpha  occ. eigenvalues --   -1.11492  -1.06197  -1.04665  -1.01094  -0.99100
 Alpha  occ. eigenvalues --   -0.95305  -0.90034  -0.86420  -0.85179  -0.83846
 Alpha  occ. eigenvalues --   -0.77806  -0.75005  -0.74265  -0.69631  -0.69250
 Alpha  occ. eigenvalues --   -0.68106  -0.67851  -0.66453  -0.64877  -0.64687
 Alpha  occ. eigenvalues --   -0.61751  -0.61365  -0.59058  -0.58843  -0.58292
 Alpha  occ. eigenvalues --   -0.57344  -0.56071  -0.53539  -0.52008  -0.46368
 Alpha  occ. eigenvalues --   -0.45547  -0.43874
 Alpha virt. eigenvalues --   -0.26124  -0.15052  -0.13921  -0.12940  -0.07173
 Alpha virt. eigenvalues --   -0.05749  -0.05546  -0.03998  -0.02659  -0.01641
 Alpha virt. eigenvalues --   -0.01044   0.00348   0.00528   0.01561   0.02422

 Mulliken charges:
               1
     1  C   -0.101406
     2  C   -0.033975
     3  C   -0.117998
     4  C   -0.079479
     5  C   -0.079479
     6  C   -0.117998
     7  C   -0.033975
     8  C   -0.101406
     9  C   -0.299015
    10  C   -0.050024
    11  C    0.091198
    12  C    0.048186
    13  C    0.091198
    14  C    0.048186
    15  H    0.147094
    16  H    0.151146
    17  H    0.144210
    18  H    0.142515
    19  H    0.166033
    20  H    0.142515
    21  H    0.144210
    22  H    0.151146
    23  H    0.147094
    24  H    0.200012
    25  H    0.200012
 Sum of Mulliken charges =   1.00000

 Dipole moment (field-independent basis, Debye):
    X=             -0.0000    Y=              0.0000    Z=              0.1373  Tot=              0.1373
 Quadrupole moment (field-independent basis, Debye-Ang):
   XX=            -83.9995   YY=            -32.4468   ZZ=            -54.6116
   XY=              0.0318   XZ=             -0.0000   YZ=             -0.0000

 Normal termination of Gaussian 16 at Tue Jul 26 12:45:37 2022.
