 Gaussian 16, Revision C.01,
 Gaussian 16:  ES64L-G16RevC.01  3-Jul-2019

 ----------------------------------------------
 #n M062X/cc-pvtz TD EmpiricalDispersion=GD3 SP
 ----------------------------------------------

 -----
 SP_-3
 -----
 Symbolic Z-matrix:
 Charge =  1 Multiplicity = 1

                         Standard orientation:
 ---------------------------------------------------------------------
 Center     Atomic      Atomic             Coordinates (Angstroms)
 Number     Number       Type             X           Y           Z
 ---------------------------------------------------------------------
      1          6           0        0.000000    2.492700   -1.407563
      2          6           0       -0.024000    3.701500   -0.725163
      3          6           0       -0.048000    3.683900    0.687637
      4          6           0       -0.024000    2.463200    1.468437
      5          6           0        0.024000   -2.463200    1.468437
      6          6           0        0.048000   -3.683900    0.687637
      7          6           0        0.024000   -3.701500   -0.725163
      8          6           0       -0.000000   -2.492700   -1.407563
      9          6           0       -0.000000   -0.000000   -1.476563
     10          6           0        0.000000    0.000000    1.517037
     11          6           0        0.033000    1.262100   -0.649163
     12          6           0       -0.003000    1.237500    0.758637
     13          6           0       -0.033000   -1.262100   -0.649163
     14          6           0        0.003000   -1.237500    0.758637
     15          1           0        0.000000    2.488100   -2.457763
     16          1           0       -0.021000    4.636800   -1.264863
     17          1           0       -0.006000    4.609300    1.270237
     18          1           0       -0.024000    2.467500    2.517937
     19          1           0        0.000000    0.000000    2.586137
     20          1           0        0.024000   -2.467500    2.517937
     21          1           0        0.006000   -4.609300    1.270237
     22          1           0        0.021000   -4.636800   -1.264863
     23          1           0       -0.000000   -2.488100   -2.457763
     24          1           0        0.859600    0.000000   -2.276963
     25          1           0       -0.859600    0.000000   -2.276963
 ---------------------------------------------------------------------

 SCF Done:  E(RM062X) =  -539.778534971     A.U. after   14 cycles

 Excitation energies and oscillator strengths:

 Excited State   1:      Singlet-A      2.5537 eV  485.50 nm  f=0.0275  <S**2>=0.000
      47 -> 48         0.70457
 This state for optimization and/or second-order correction.
 Total Energy, E(TD-HF/TD-DFT) =  -539.684686922
 Copying the excited state density for this state as the 1-particle RhoCI density.

 Excited State   2:      Singlet-B      2.9408 eV  421.60 nm  f=0.0113  <S**2>=0.000
      45 -> 48         0.24214
      46 -> 48         0.65995

 Excited State   3:      Singlet-B      3.3710 eV  367.80 nm  f=0.4560  <S**2>=0.000
      45 -> 48         0.65671
      46 -> 48        -0.23731

 The electronic state is 1-A.
 Alpha  occ. eigenvalues --  -10.78369 -10.73871 -10.73871 -10.72904 -10.72903
 Alpha  occ. eigenvalues --  -10.72497 -10.71434 -10.71434 -10.70999 -10.70999
 Alpha  occ. eigenvalues --  -10.70245 -10.70245 -10.70088 -10.70088  -1.15117
 Alpha  occ. eigenvalues --   -1.11106  -1.05959  -1.04183  -1.01066  -0.98637
 Alpha  occ. eigenvalues --   -0.95151  -0.89623  -0.86515  -0.84944  -0.83922
 Alpha  occ. eigenvalues --   -0.77620  -0.74601  -0.74280  -0.69951  -0.69430
 Alpha  occ. eigenvalues --   -0.68194  -0.67477  -0.65761  -0.65189  -0.64671
 Alpha  occ. eigenvalues --   -0.61770  -0.60640  -0.58758  -0.58254  -0.57985
 Alpha  occ. eigenvalues --   -0.57634  -0.56530  -0.52996  -0.51808  -0.46341
 Alpha  occ. eigenvalues --   -0.45253  -0.43585
 Alpha virt. eigenvalues --   -0.26218  -0.15366  -0.13965  -0.13134  -0.07354
 Alpha virt. eigenvalues --   -0.05972  -0.05591  -0.03982  -0.02662  -0.01667
 Alpha virt. eigenvalues --   -0.01505   0.00320   0.00488   0.01345   0.02400

 Mulliken charges:
               1
     1  C   -0.104256
     2  C   -0.035679
     3  C   -0.116477
     4  C   -0.090690
     5  C   -0.090690
     6  C   -0.116477
     7  C   -0.035679
     8  C   -0.104256
     9  C   -0.297139
    10  C   -0.042089
    11  C    0.086561
    12  C    0.046250
    13  C    0.086561
    14  C    0.046250
    15  H    0.152499
    16  H    0.153025
    17  H    0.144989
    18  H    0.149032
    19  H    0.169558
    20  H    0.149032
    21  H    0.144989
    22  H    0.153025
    23  H    0.152499
    24  H    0.199582
    25  H    0.199582
 Sum of Mulliken charges =   1.00000

 Dipole moment (field-independent basis, Debye):
    X=             -0.0000    Y=              0.0000    Z=              0.1074  Tot=              0.1074
 Quadrupole moment (field-independent basis, Debye-Ang):
   XX=            -84.3180   YY=            -33.1786   ZZ=            -53.7132
   XY=              0.0529   XZ=              0.0000   YZ=              0.0000

 Normal termination of Gaussian 16 at Tue Jul 26 12:38:33 2022.
