 Gaussian 16, Revision C.01,
 Gaussian 16:  ES64L-G16RevC.01  3-Jul-2019

 ----------------------------------------------
 #n M062X/cc-pvtz TD EmpiricalDispersion=GD3 SP
 ----------------------------------------------

 ----
 SP_4
 ----
 Symbolic Z-matrix:
 Charge =  1 Multiplicity = 1

                         Standard orientation:
 ---------------------------------------------------------------------
 Center     Atomic      Atomic             Coordinates (Angstroms)
 Number     Number       Type             X           Y           Z
 ---------------------------------------------------------------------
      1          6           0        0.000000    2.492700    1.297553
      2          6           0       -0.032000    3.701500    0.601153
      3          6           0       -0.064000    3.683900   -0.748647
      4          6           0       -0.032000    2.463200   -1.326447
      5          6           0        0.032000   -2.463200   -1.326447
      6          6           0        0.064000   -3.683900   -0.748647
      7          6           0        0.032000   -3.701500    0.601153
      8          6           0       -0.000000   -2.492700    1.297553
      9          6           0       -0.000000    0.000000    1.422553
     10          6           0        0.000000   -0.000000   -1.312047
     11          6           0        0.044000    1.262100    0.714153
     12          6           0       -0.004000    1.237500   -0.693647
     13          6           0       -0.044000   -1.262100    0.714153
     14          6           0        0.004000   -1.237500   -0.693647
     15          1           0        0.000000    2.488100    2.424753
     16          1           0       -0.028000    4.636800    1.140853
     17          1           0       -0.008000    4.609300   -1.275247
     18          1           0       -0.032000    2.467500   -2.452947
     19          1           0        0.000000   -0.000000   -2.409147
     20          1           0        0.032000   -2.467500   -2.452947
     21          1           0        0.008000   -4.609300   -1.275247
     22          1           0        0.028000   -4.636800    1.140853
     23          1           0       -0.000000   -2.488100    2.424753
     24          1           0       -0.859600   -0.000000    1.970953
     25          1           0        0.859600   -0.000000    1.970953
 ---------------------------------------------------------------------

 SCF Done:  E(RM062X) =  -539.775393134     A.U. after   14 cycles

 Excitation energies and oscillator strengths:

 Excited State   1:      Singlet-A      3.1258 eV  396.64 nm  f=0.0263  <S**2>=0.000
      47 -> 48         0.70354
 This state for optimization and/or second-order correction.
 Total Energy, E(TD-HF/TD-DFT) =  -539.660520365
 Copying the excited state density for this state as the 1-particle RhoCI density.

 Excited State   2:      Singlet-B      3.5562 eV  348.64 nm  f=0.4018  <S**2>=0.000
      45 -> 48        -0.34427
      46 -> 48         0.60961

 Excited State   3:      Singlet-B      3.7066 eV  334.49 nm  f=0.2294  <S**2>=0.000
      45 -> 48         0.60741
      46 -> 48         0.33611

 The electronic state is 1-A.
 Alpha  occ. eigenvalues --  -10.76472 -10.72194 -10.72193 -10.71523 -10.71522
 Alpha  occ. eigenvalues --  -10.71114 -10.71113 -10.70896 -10.70896 -10.69591
 Alpha  occ. eigenvalues --  -10.69591 -10.68804 -10.68754 -10.68754  -1.17892
 Alpha  occ. eigenvalues --   -1.14002  -1.08665  -1.06861  -1.02209  -1.01051
 Alpha  occ. eigenvalues --   -0.96404  -0.92558  -0.86841  -0.85723  -0.83541
 Alpha  occ. eigenvalues --   -0.79258  -0.77120  -0.74037  -0.71875  -0.71220
 Alpha  occ. eigenvalues --   -0.69214  -0.68237  -0.66625  -0.66100  -0.62827
 Alpha  occ. eigenvalues --   -0.62044  -0.61780  -0.61496  -0.60749  -0.59748
 Alpha  occ. eigenvalues --   -0.56731  -0.55108  -0.53238  -0.52406  -0.47810
 Alpha  occ. eigenvalues --   -0.46134  -0.45496
 Alpha virt. eigenvalues --   -0.25740  -0.14228  -0.13056  -0.11689  -0.06364
 Alpha virt. eigenvalues --   -0.05518  -0.04912  -0.04393  -0.02767  -0.01598
 Alpha virt. eigenvalues --    0.00348   0.00539   0.00798   0.01734   0.02536

 Mulliken charges:
               1
     1  C   -0.111346
     2  C   -0.019148
     3  C   -0.126092
     4  C   -0.048052
     5  C   -0.048052
     6  C   -0.126092
     7  C   -0.019148
     8  C   -0.111346
     9  C   -0.360409
    10  C   -0.092362
    11  C    0.134981
    12  C    0.080147
    13  C    0.134981
    14  C    0.080147
    15  H    0.119649
    16  H    0.144506
    17  H    0.142475
    18  H    0.115418
    19  H    0.151216
    20  H    0.115418
    21  H    0.142475
    22  H    0.144506
    23  H    0.119649
    24  H    0.218239
    25  H    0.218239
 Sum of Mulliken charges =   1.00000

 Dipole moment (field-independent basis, Debye):
    X=             -0.0000    Y=              0.0000    Z=             -0.3241  Tot=              0.3241
 Quadrupole moment (field-independent basis, Debye-Ang):
   XX=            -82.1730   YY=            -27.8969   ZZ=            -60.0526
   XY=              0.0074   XZ=              0.0000   YZ=             -0.0000

 Normal termination of Gaussian 16 at Tue Jul 26 13:25:55 2022.
