 Gaussian 16, Revision C.01,
 Gaussian 16:  ES64L-G16RevC.01  3-Jul-2019

 ----------------------------------------------
 #n M062X/cc-pvtz TD EmpiricalDispersion=GD3 SP
 ----------------------------------------------

 ----
 SP_5
 ----
 Symbolic Z-matrix:
 Charge =  1 Multiplicity = 1

                         Standard orientation:
 ---------------------------------------------------------------------
 Center     Atomic      Atomic             Coordinates (Angstroms)
 Number     Number       Type             X           Y           Z
 ---------------------------------------------------------------------
      1          6           0        0.000000    2.492700    1.281837
      2          6           0       -0.040000    3.701500    0.583437
      3          6           0       -0.080000    3.683900   -0.757363
      4          6           0       -0.040000    2.463200   -1.306163
      5          6           0        0.040000   -2.463200   -1.306163
      6          6           0        0.080000   -3.683900   -0.757363
      7          6           0        0.040000   -3.701500    0.583437
      8          6           0       -0.000000   -2.492700    1.281837
      9          6           0        0.000000    0.000000    1.414837
     10          6           0       -0.000000   -0.000000   -1.282763
     11          6           0        0.055000    1.262100    0.723437
     12          6           0       -0.005000    1.237500   -0.684363
     13          6           0       -0.055000   -1.262100    0.723437
     14          6           0        0.005000   -1.237500   -0.684363
     15          1           0        0.000000    2.488100    2.420037
     16          1           0       -0.035000    4.636800    1.123137
     17          1           0       -0.010000    4.609300   -1.275963
     18          1           0       -0.040000    2.467500   -2.443663
     19          1           0       -0.000000   -0.000000   -2.383863
     20          1           0        0.040000   -2.467500   -2.443663
     21          1           0        0.010000   -4.609300   -1.275963
     22          1           0        0.035000   -4.636800    1.123137
     23          1           0       -0.000000   -2.488100    2.420037
     24          1           0       -0.859600    0.000000    1.927237
     25          1           0        0.859600   -0.000000    1.927237
 ---------------------------------------------------------------------

 SCF Done:  E(RM062X) =  -539.748289557     A.U. after   14 cycles

 Excitation energies and oscillator strengths:

 Excited State   1:      Singlet-A      3.1896 eV  388.72 nm  f=0.0257  <S**2>=0.000
      47 -> 48         0.70339
 This state for optimization and/or second-order correction.
 Total Energy, E(TD-HF/TD-DFT) =  -539.631075345
 Copying the excited state density for this state as the 1-particle RhoCI density.

 Excited State   2:      Singlet-B      3.5655 eV  347.74 nm  f=0.4745  <S**2>=0.000
      44 -> 48         0.11053
      45 -> 48        -0.22716
      46 -> 48         0.65436

 Excited State   3:      Singlet-B      3.7927 eV  326.90 nm  f=0.1292  <S**2>=0.000
      44 -> 48         0.11506
      45 -> 48         0.65519
      46 -> 48         0.20356

 The electronic state is 1-A.
 Alpha  occ. eigenvalues --  -10.76222 -10.71995 -10.71995 -10.71369 -10.71368
 Alpha  occ. eigenvalues --  -10.71116 -10.71116 -10.70913 -10.70913 -10.69551
 Alpha  occ. eigenvalues --  -10.69551 -10.68601 -10.68601 -10.68350  -1.18329
 Alpha  occ. eigenvalues --   -1.14461  -1.09259  -1.07099  -1.02720  -1.01070
 Alpha  occ. eigenvalues --   -0.96631  -0.92954  -0.87103  -0.85582  -0.83618
 Alpha  occ. eigenvalues --   -0.79529  -0.77385  -0.74022  -0.72966  -0.71756
 Alpha  occ. eigenvalues --   -0.69350  -0.68369  -0.66837  -0.66077  -0.62429
 Alpha  occ. eigenvalues --   -0.62074  -0.61737  -0.61421  -0.60883  -0.59761
 Alpha  occ. eigenvalues --   -0.57206  -0.54774  -0.53386  -0.51695  -0.48171
 Alpha  occ. eigenvalues --   -0.46116  -0.45739
 Alpha virt. eigenvalues --   -0.25709  -0.14320  -0.12724  -0.11544  -0.06275
 Alpha virt. eigenvalues --   -0.05563  -0.04840  -0.04507  -0.02797  -0.01589
 Alpha virt. eigenvalues --    0.00323   0.00492   0.00858   0.01586   0.02662

 Mulliken charges:
               1
     1  C   -0.115793
     2  C   -0.015371
     3  C   -0.129571
     4  C   -0.045544
     5  C   -0.045544
     6  C   -0.129571
     7  C   -0.015371
     8  C   -0.115793
     9  C   -0.381770
    10  C   -0.096487
    11  C    0.143805
    12  C    0.086824
    13  C    0.143805
    14  C    0.086824
    15  H    0.116000
    16  H    0.144357
    17  H    0.143323
    18  H    0.112354
    19  H    0.149471
    20  H    0.112354
    21  H    0.143323
    22  H    0.144357
    23  H    0.116000
    24  H    0.224010
    25  H    0.224010
 Sum of Mulliken charges =   1.00000

 Dipole moment (field-independent basis, Debye):
    X=              0.0000    Y=             -0.0000    Z=             -0.3606  Tot=              0.3606
 Quadrupole moment (field-independent basis, Debye-Ang):
   XX=            -81.8893   YY=            -27.1252   ZZ=            -60.9834
   XY=             -0.0054   XZ=              0.0000   YZ=             -0.0000

 Normal termination of Gaussian 16 at Tue Jul 26 13:33:50 2022.
