 Gaussian 16, Revision C.01,
 Gaussian 16:  ES64L-G16RevC.01  3-Jul-2019

 ----------------------------------------------
 #n M062X/cc-pvtz TD EmpiricalDispersion=GD3 SP
 ----------------------------------------------

 -----
 SP_-4
 -----
 Symbolic Z-matrix:
 Charge =  1 Multiplicity = 1

                         Standard orientation:
 ---------------------------------------------------------------------
 Center     Atomic      Atomic             Coordinates (Angstroms)
 Number     Number       Type             X           Y           Z
 ---------------------------------------------------------------------
      1          6           0        0.000000    2.492700   -1.423279
      2          6           0       -0.032000    3.701500   -0.742879
      3          6           0       -0.064000    3.683900    0.678921
      4          6           0       -0.032000    2.463200    1.488721
      5          6           0        0.032000   -2.463200    1.488721
      6          6           0        0.064000   -3.683900    0.678921
      7          6           0        0.032000   -3.701500   -0.742879
      8          6           0       -0.000000   -2.492700   -1.423279
      9          6           0       -0.000000   -0.000000   -1.484279
     10          6           0        0.000000    0.000000    1.546321
     11          6           0        0.044000    1.262100   -0.639879
     12          6           0       -0.004000    1.237500    0.767921
     13          6           0       -0.044000   -1.262100   -0.639879
     14          6           0        0.004000   -1.237500    0.767921
     15          1           0        0.000000    2.488100   -2.462479
     16          1           0       -0.028000    4.636800   -1.282579
     17          1           0       -0.008000    4.609300    1.269521
     18          1           0       -0.032000    2.467500    2.527221
     19          1           0        0.000000    0.000000    2.611421
     20          1           0        0.032000   -2.467500    2.527221
     21          1           0        0.008000   -4.609300    1.269521
     22          1           0        0.028000   -4.636800   -1.282579
     23          1           0       -0.000000   -2.488100   -2.462479
     24          1           0        0.859600   -0.000000   -2.320679
     25          1           0       -0.859600    0.000000   -2.320679
 ---------------------------------------------------------------------

 SCF Done:  E(RM062X) =  -539.754199936     A.U. after   15 cycles

 Excitation energies and oscillator strengths:

 Excited State   1:      Singlet-A      2.4584 eV  504.33 nm  f=0.0273  <S**2>=0.000
      47 -> 48         0.70466
 This state for optimization and/or second-order correction.
 Total Energy, E(TD-HF/TD-DFT) =  -539.663855302
 Copying the excited state density for this state as the 1-particle RhoCI density.

 Excited State   2:      Singlet-B      2.8306 eV  438.01 nm  f=0.0110  <S**2>=0.000
      45 -> 48        -0.18869
      46 -> 48         0.67771

 Excited State   3:      Singlet-B      3.3303 eV  372.30 nm  f=0.4289  <S**2>=0.000
      45 -> 48         0.67333
      46 -> 48         0.18406

 The electronic state is 1-A.
 Alpha  occ. eigenvalues --  -10.78647 -10.74132 -10.74132 -10.73132 -10.73131
 Alpha  occ. eigenvalues --  -10.73057 -10.71515 -10.71515 -10.71039 -10.71039
 Alpha  occ. eigenvalues --  -10.70505 -10.70505 -10.70178 -10.70178  -1.14747
 Alpha  occ. eigenvalues --   -1.10728  -1.05739  -1.03699  -1.01039  -0.98182
 Alpha  occ. eigenvalues --   -0.95003  -0.89221  -0.86607  -0.84798  -0.83921
 Alpha  occ. eigenvalues --   -0.77460  -0.74281  -0.74193  -0.70268  -0.69677
 Alpha  occ. eigenvalues --   -0.68266  -0.67178  -0.65383  -0.65129  -0.64592
 Alpha  occ. eigenvalues --   -0.61770  -0.59932  -0.58462  -0.57920  -0.57740
 Alpha  occ. eigenvalues --   -0.57617  -0.56870  -0.52450  -0.51611  -0.46328
 Alpha  occ. eigenvalues --   -0.44951  -0.43294
 Alpha virt. eigenvalues --   -0.26318  -0.15673  -0.14083  -0.13271  -0.07548
 Alpha virt. eigenvalues --   -0.06237  -0.05640  -0.03983  -0.02674  -0.02033
 Alpha virt. eigenvalues --   -0.01655   0.00282   0.00438   0.01106   0.02320

 Mulliken charges:
               1
     1  C   -0.108074
     2  C   -0.037452
     3  C   -0.114822
     4  C   -0.102950
     5  C   -0.102950
     6  C   -0.114822
     7  C   -0.037452
     8  C   -0.108074
     9  C   -0.297085
    10  C   -0.034954
    11  C    0.082943
    12  C    0.045238
    13  C    0.082943
    14  C    0.045238
    15  H    0.158085
    16  H    0.155008
    17  H    0.145721
    18  H    0.156035
    19  H    0.173429
    20  H    0.156035
    21  H    0.145721
    22  H    0.155008
    23  H    0.158085
    24  H    0.199570
    25  H    0.199570
 Sum of Mulliken charges =   1.00000

 Dipole moment (field-independent basis, Debye):
    X=             -0.0000    Y=              0.0000    Z=              0.0772  Tot=              0.0772
 Quadrupole moment (field-independent basis, Debye-Ang):
   XX=            -84.6387   YY=            -33.8987   ZZ=            -52.8152
   XY=              0.0770   XZ=             -0.0000   YZ=              0.0000

 Normal termination of Gaussian 16 at Tue Jul 26 12:31:43 2022.
