 Gaussian 16, Revision C.01,
 Gaussian 16:  ES64L-G16RevC.01  3-Jul-2019

 ----------------------------------------------
 #n M062X/cc-pvtz TD EmpiricalDispersion=GD3 SP
 ----------------------------------------------

 -----
 SP_-1
 -----
 Symbolic Z-matrix:
 Charge =  1 Multiplicity = 1

                         Standard orientation:
 ---------------------------------------------------------------------
 Center     Atomic      Atomic             Coordinates (Angstroms)
 Number     Number       Type             X           Y           Z
 ---------------------------------------------------------------------
      1          6           0        0.000000    2.492700    1.376132
      2          6           0        0.008000    3.701500    0.689732
      3          6           0        0.016000    3.683900   -0.705068
      4          6           0        0.008000    2.463200   -1.427868
      5          6           0       -0.008000   -2.463200   -1.427868
      6          6           0       -0.016000   -3.683900   -0.705068
      7          6           0       -0.008000   -3.701500    0.689732
      8          6           0       -0.000000   -2.492700    1.376132
      9          6           0       -0.000000    0.000000    1.461132
     10          6           0        0.000000   -0.000000   -1.458468
     11          6           0       -0.011000    1.262100    0.667732
     12          6           0        0.001000    1.237500   -0.740068
     13          6           0        0.011000   -1.262100    0.667732
     14          6           0       -0.001000   -1.237500   -0.740068
     15          1           0        0.000000    2.488100    2.448332
     16          1           0        0.007000    4.636800    1.229432
     17          1           0        0.002000    4.609300   -1.271668
     18          1           0        0.008000    2.467500   -2.499368
     19          1           0        0.000000   -0.000000   -2.535568
     20          1           0       -0.008000   -2.467500   -2.499368
     21          1           0       -0.002000   -4.609300   -1.271668
     22          1           0       -0.007000   -4.636800    1.229432
     23          1           0       -0.000000   -2.488100    2.448332
     24          1           0       -0.859600    0.000000    2.189532
     25          1           0        0.859600   -0.000000    2.189532
 ---------------------------------------------------------------------

 SCF Done:  E(RM062X) =  -539.809551175     A.U. after   14 cycles

 Excitation energies and oscillator strengths:

 Excited State   1:      Singlet-A      2.7361 eV  453.13 nm  f=0.0277  <S**2>=0.000
      47 -> 48         0.70431
 This state for optimization and/or second-order correction.
 Total Energy, E(TD-HF/TD-DFT) =  -539.708999775
 Copying the excited state density for this state as the 1-particle RhoCI density.

 Excited State   2:      Singlet-B      3.1583 eV  392.57 nm  f=0.0081  <S**2>=0.000
      45 -> 48        -0.45950
      46 -> 48         0.53064

 Excited State   3:      Singlet-B      3.4486 eV  359.52 nm  f=0.5146  <S**2>=0.000
      45 -> 48         0.53056
      46 -> 48         0.45451

 The electronic state is 1-A.
 Alpha  occ. eigenvalues --  -10.77813 -10.73358 -10.73357 -10.72467 -10.72467
 Alpha  occ. eigenvalues --  -10.71386 -10.71293 -10.71293 -10.70937 -10.70937
 Alpha  occ. eigenvalues --  -10.69919 -10.69919 -10.69756 -10.69756  -1.15871
 Alpha  occ. eigenvalues --   -1.11886  -1.06465  -1.05135  -1.01123  -0.99568
 Alpha  occ. eigenvalues --   -0.95466  -0.90454  -0.86320  -0.85449  -0.83746
 Alpha  occ. eigenvalues --   -0.78014  -0.75400  -0.74237  -0.69364  -0.69137
 Alpha  occ. eigenvalues --   -0.68199  -0.68026  -0.67204  -0.64629  -0.64494
 Alpha  occ. eigenvalues --   -0.62098  -0.61714  -0.59409  -0.59360  -0.58601
 Alpha  occ. eigenvalues --   -0.57028  -0.55553  -0.54076  -0.52210  -0.46432
 Alpha  occ. eigenvalues --   -0.45810  -0.44159
 Alpha virt. eigenvalues --   -0.26039  -0.14730  -0.13926  -0.12717  -0.07005
 Alpha virt. eigenvalues --   -0.05579  -0.05488  -0.04028  -0.02664  -0.01631
 Alpha virt. eigenvalues --   -0.00605   0.00368   0.00557   0.01757   0.02388

 Mulliken charges:
               1
     1  C   -0.099936
     2  C   -0.032185
     3  C   -0.119313
     4  C   -0.069834
     5  C   -0.069834
     6  C   -0.119313
     7  C   -0.032185
     8  C   -0.099936
     9  C   -0.302907
    10  C   -0.058490
    11  C    0.096889
    12  C    0.051259
    13  C    0.096889
    14  C    0.051259
    15  H    0.141893
    16  H    0.149422
    17  H    0.143445
    18  H    0.136562
    19  H    0.162854
    20  H    0.136562
    21  H    0.143445
    22  H    0.149422
    23  H    0.141893
    24  H    0.201070
    25  H    0.201070
 Sum of Mulliken charges =   1.00000

 Dipole moment (field-independent basis, Debye):
    X=             -0.0000    Y=              0.0000    Z=             -0.1670  Tot=              0.1670
 Quadrupole moment (field-independent basis, Debye-Ang):
   XX=            -83.6839   YY=            -31.7050   ZZ=            -55.5102
   XY=             -0.0140   XZ=              0.0000   YZ=              0.0000

 Normal termination of Gaussian 16 at Tue Jul 26 12:52:22 2022.
