 Gaussian 16, Revision C.01,
 Gaussian 16:  ES64L-G16RevC.01  3-Jul-2019

 ----------------------------------------------
 #n M062X/cc-pvtz TD EmpiricalDispersion=GD3 SP
 ----------------------------------------------

 ----
 SP_2
 ----
 Symbolic Z-matrix:
 Charge =  1 Multiplicity = 1

                         Standard orientation:
 ---------------------------------------------------------------------
 Center     Atomic      Atomic             Coordinates (Angstroms)
 Number     Number       Type             X           Y           Z
 ---------------------------------------------------------------------
      1          6           0       -0.000000    2.492700    1.328984
      2          6           0       -0.016000    3.701500    0.636584
      3          6           0       -0.032000    3.683900   -0.731216
      4          6           0       -0.016000    2.463200   -1.367016
      5          6           0        0.016000   -2.463200   -1.367016
      6          6           0        0.032000   -3.683900   -0.731216
      7          6           0        0.016000   -3.701500    0.636584
      8          6           0       -0.000000   -2.492700    1.328984
      9          6           0        0.000000    0.000000    1.437984
     10          6           0        0.000000   -0.000000   -1.370616
     11          6           0        0.022000    1.262100    0.695584
     12          6           0       -0.002000    1.237500   -0.712216
     13          6           0       -0.022000   -1.262100    0.695584
     14          6           0        0.002000   -1.237500   -0.712216
     15          1           0       -0.000000    2.488100    2.434184
     16          1           0       -0.014000    4.636800    1.176284
     17          1           0       -0.004000    4.609300   -1.273816
     18          1           0       -0.016000    2.467500   -2.471516
     19          1           0        0.000000   -0.000000   -2.459716
     20          1           0        0.016000   -2.467500   -2.471516
     21          1           0        0.004000   -4.609300   -1.273816
     22          1           0        0.014000   -4.636800    1.176284
     23          1           0       -0.000000   -2.488100    2.434184
     24          1           0       -0.859600    0.000000    2.058384
     25          1           0        0.859600   -0.000000    2.058384
 ---------------------------------------------------------------------

 SCF Done:  E(RM062X) =  -539.809016738     A.U. after   14 cycles

 Excitation energies and oscillator strengths:

 Excited State   1:      Singlet-A      2.9832 eV  415.61 nm  f=0.0272  <S**2>=0.000
      47 -> 48         0.70385
 This state for optimization and/or second-order correction.
 Total Energy, E(TD-HF/TD-DFT) =  -539.699386298
 Copying the excited state density for this state as the 1-particle RhoCI density.

 Excited State   2:      Singlet-B      3.4580 eV  358.54 nm  f=0.0343  <S**2>=0.000
      45 -> 48         0.68269
      46 -> 48        -0.16172

 Excited State   3:      Singlet-B      3.5630 eV  347.98 nm  f=0.5665  <S**2>=0.000
      45 -> 48         0.15765
      46 -> 48         0.67930

 The electronic state is 1-A.
 Alpha  occ. eigenvalues --  -10.76994 -10.72632 -10.72631 -10.71871 -10.71870
 Alpha  occ. eigenvalues --  -10.71149 -10.71149 -10.70890 -10.70890 -10.69785
 Alpha  occ. eigenvalues --  -10.69700 -10.69700 -10.69111 -10.69111  -1.17055
 Alpha  occ. eigenvalues --   -1.13123  -1.07599  -1.06309  -1.01377  -1.00839
 Alpha  occ. eigenvalues --   -0.95996  -0.91729  -0.86295  -0.85983  -0.83526
 Alpha  occ. eigenvalues --   -0.78731  -0.76500  -0.74111  -0.70163  -0.69836
 Alpha  occ. eigenvalues --   -0.69067  -0.68037  -0.67623  -0.64692  -0.63567
 Alpha  occ. eigenvalues --   -0.63093  -0.61524  -0.60925  -0.60266  -0.59415
 Alpha  occ. eigenvalues --   -0.56072  -0.55530  -0.53759  -0.52835  -0.47126
 Alpha  occ. eigenvalues --   -0.46129  -0.44983
 Alpha virt. eigenvalues --   -0.25832  -0.14071  -0.13731  -0.12051  -0.06581
 Alpha virt. eigenvalues --   -0.05483  -0.05106  -0.04206  -0.02715  -0.01612
 Alpha virt. eigenvalues --    0.00355   0.00460   0.00583   0.02043   0.02255

 Mulliken charges:
               1
     1  C   -0.104152
     2  C   -0.025420
     3  C   -0.122272
     4  C   -0.052819
     5  C   -0.052819
     6  C   -0.122272
     7  C   -0.025420
     8  C   -0.104152
     9  C   -0.328219
    10  C   -0.081871
    11  C    0.118519
    12  C    0.067011
    13  C    0.118519
    14  C    0.067011
    15  H    0.127742
    16  H    0.145627
    17  H    0.141980
    18  H    0.122365
    19  H    0.155158
    20  H    0.122365
    21  H    0.141980
    22  H    0.145627
    23  H    0.127742
    24  H    0.208884
    25  H    0.208884
 Sum of Mulliken charges =   1.00000

 Dipole moment (field-independent basis, Debye):
    X=             -0.0000    Y=             -0.0000    Z=             -0.2579  Tot=              0.2579
 Quadrupole moment (field-independent basis, Debye-Ang):
   XX=            -82.7610   YY=            -29.4342   ZZ=            -58.2191
   XY=              0.0145   XZ=             -0.0000   YZ=              0.0000

 Normal termination of Gaussian 16 at Tue Jul 26 13:11:23 2022.
