 Gaussian 16, Revision C.01,
 Gaussian 16:  ES64L-G16RevC.01  3-Jul-2019

 ---------------------------------------------------------------
 #n M062X/6-311++G(d,p) TD(NStates=1) EmpiricalDispersion=GD3 SP
 ---------------------------------------------------------------

 ------
 SP_-10
 ------
 Symbolic Z-matrix:
 Charge =  1 Multiplicity = 1

                         Standard orientation:
 ---------------------------------------------------------------------
 Center     Atomic      Atomic             Coordinates (Angstroms)
 Number     Number       Type             X           Y           Z
 ---------------------------------------------------------------------
      1          6           0       -0.201085   -2.686426    0.000000
      2          6           0        0.815985   -3.636517    0.000000
      3          6           0        2.115384   -3.175426    0.000000
      4          6           0        2.390306   -1.756322    0.000000
      5          6           0        0.295811    2.653148    0.000000
      6          6           0       -0.680114    3.620794    0.000000
      7          6           0       -2.029240    3.224624    0.000000
      8          6           0       -2.395197    1.853262    0.000000
      9          6           0       -1.347504   -0.622923    0.000000
     10          6           0        1.260534    0.608857    0.000000
     11          6           0        0.023991   -1.304139    0.000000
     12          6           0        1.324596   -0.815378    0.000000
     13          6           0       -1.364697    0.859145    0.000000
     14          6           0        0.000000    1.300194    0.000000
     15          1           0       -1.240524   -3.011386    0.000000
     16          1           0        0.572717   -4.694181    0.000000
     17          1           0        2.947974   -3.878919    0.000000
     18          1           0        3.429822   -1.433299    0.000000
     19          1           0        2.152784    1.265207    0.000000
     20          1           0        1.355580    2.929133    0.000000
     21          1           0       -0.406202    4.670046    0.000000
     22          1           0       -2.799682    3.998255    0.000000
     23          1           0       -3.456320    1.578665    0.000000
     24          1           0       -1.904387   -1.080442    0.859585
     25          1           0       -1.904387   -1.080442   -0.859585
 ---------------------------------------------------------------------

 SCF Done:  E(RM062X) =  -539.710673411     A.U. after   16 cycles

 Excitation energies and oscillator strengths:

 Excited State   1:      Singlet-A'     2.8047 eV  442.06 nm  f=0.0303  <S**2>=0.000
      47 -> 48         0.70387
 This state for optimization and/or second-order correction.
 Total Energy, E(TD-HF/TD-DFT) =  -539.607602089
 Copying the excited state density for this state as the 1-particle RhoCI density.

 The electronic state is 1-A'.
 Alpha  occ. eigenvalues --  -10.78249 -10.74274 -10.73042 -10.72846 -10.72437
 Alpha  occ. eigenvalues --  -10.72219 -10.71986 -10.71963 -10.71548 -10.70957
 Alpha  occ. eigenvalues --  -10.70665 -10.70245 -10.69524 -10.69378  -1.16415
 Alpha  occ. eigenvalues --   -1.12265  -1.06672  -1.05489  -1.01263  -1.00033
 Alpha  occ. eigenvalues --   -0.95376  -0.90529  -0.87231  -0.84911  -0.83524
 Alpha  occ. eigenvalues --   -0.77907  -0.75698  -0.73866  -0.69904  -0.69365
 Alpha  occ. eigenvalues --   -0.68143  -0.67610  -0.67455  -0.64415  -0.63867
 Alpha  occ. eigenvalues --   -0.62256  -0.61190  -0.59811  -0.59410  -0.58712
 Alpha  occ. eigenvalues --   -0.56150  -0.55424  -0.54586  -0.52208  -0.46667
 Alpha  occ. eigenvalues --   -0.45977  -0.44285
 Alpha virt. eigenvalues --   -0.25933  -0.14992  -0.14321  -0.12969  -0.11262
 Alpha virt. eigenvalues --   -0.10183  -0.09243  -0.08037  -0.08034  -0.07558
 Alpha virt. eigenvalues --   -0.07246  -0.07183  -0.05770  -0.05605  -0.05315

 Mulliken charges:
               1
     1  C    0.317166
     2  C   -0.302427
     3  C   -0.459986
     4  C   -0.456432
     5  C    0.069297
     6  C   -0.451162
     7  C   -0.368336
     8  C   -0.239749
     9  C   -0.693577
    10  C   -0.205303
    11  C   -0.001433
    12  C    0.511468
    13  C   -0.551447
    14  C    1.158273
    15  H    0.243071
    16  H    0.260701
    17  H    0.250033
    18  H    0.240511
    19  H    0.213387
    20  H    0.189423
    21  H    0.260062
    22  H    0.255818
    23  H    0.255882
    24  H    0.252380
    25  H    0.252380
 Sum of Mulliken charges =   1.00000

 Dipole moment (field-independent basis, Debye):
    X=              0.0860    Y=              0.2890    Z=             -0.0000  Tot=              0.3015
 Quadrupole moment (field-independent basis, Debye-Ang):
   XX=            -51.9625   YY=            -34.9202   ZZ=            -84.5692
   XY=             -9.6537   XZ=             -0.0000   YZ=             -0.0000

 Normal termination of Gaussian 16 at Tue Aug  2 11:46:08 2022.
