 Gaussian 16, Revision C.01,
 Gaussian 16:  ES64L-G16RevC.01  3-Jul-2019

 ---------------------------------------------------------------
 #n M062X/6-311++G(d,p) TD(NStates=1) EmpiricalDispersion=GD3 SP
 ---------------------------------------------------------------

 ----
 SP_4
 ----
 Symbolic Z-matrix:
 Charge =  1 Multiplicity = 1

                         Standard orientation:
 ---------------------------------------------------------------------
 Center     Atomic      Atomic             Coordinates (Angstroms)
 Number     Number       Type             X           Y           Z
 ---------------------------------------------------------------------
      1          6           0        2.700879   -1.336418    0.000000
      2          6           0        3.790353   -0.413069    0.000000
      3          6           0        3.584282    0.973078    0.000000
      4          6           0        2.268606    1.431824    0.000000
      5          6           0       -2.418228    1.414603    0.000000
      6          6           0       -3.681210    0.786740    0.000000
      7          6           0       -3.730539   -0.596269    0.000000
      8          6           0       -2.545156   -1.348282    0.000000
      9          6           0        0.014879   -1.606535    0.000000
     10          6           0        0.000000    1.276262    0.000000
     11          6           0        1.333134   -0.869003    0.000000
     12          6           0        1.191618    0.544428    0.000000
     13          6           0       -1.253706   -0.750224    0.000000
     14          6           0       -1.245776    0.650049    0.000000
     15          1           0        2.932877   -2.415413    0.000000
     16          1           0        4.811061   -0.795408    0.000000
     17          1           0        4.422498    1.673680    0.000000
     18          1           0        2.046430    2.510311    0.000000
     19          1           0        0.079593    2.349049    0.000000
     20          1           0       -2.349245    2.498634    0.000000
     21          1           0       -4.592107    1.382027    0.000000
     22          1           0       -4.678136   -1.112101    0.000000
     23          1           0       -2.623934   -2.433195    0.000000
     24          1           0       -0.051926   -2.300350    0.859585
     25          1           0       -0.051926   -2.300350   -0.859585
 ---------------------------------------------------------------------

 SCF Done:  E(RM062X) =  -539.743446089     A.U. after   15 cycles

 Excitation energies and oscillator strengths:

 Excited State   1:      Singlet-A'     3.0436 eV  407.36 nm  f=0.0326  <S**2>=0.000
      47 -> 48         0.70276
 This state for optimization and/or second-order correction.
 Total Energy, E(TD-HF/TD-DFT) =  -539.631596564
 Copying the excited state density for this state as the 1-particle RhoCI density.

 The electronic state is 1-A'.
 Alpha  occ. eigenvalues --  -10.76411 -10.74491 -10.73694 -10.72080 -10.71911
 Alpha  occ. eigenvalues --  -10.71881 -10.71748 -10.71636 -10.71531 -10.71525
 Alpha  occ. eigenvalues --  -10.70990 -10.70259 -10.69938 -10.69843  -1.16399
 Alpha  occ. eigenvalues --   -1.12122  -1.06679  -1.05240  -1.01032  -1.00053
 Alpha  occ. eigenvalues --   -0.95449  -0.90729  -0.86636  -0.85646  -0.83546
 Alpha  occ. eigenvalues --   -0.77980  -0.75542  -0.73944  -0.70008  -0.69172
 Alpha  occ. eigenvalues --   -0.67911  -0.67809  -0.67435  -0.64080  -0.63658
 Alpha  occ. eigenvalues --   -0.62998  -0.61879  -0.60316  -0.59385  -0.58818
 Alpha  occ. eigenvalues --   -0.56713  -0.55222  -0.54696  -0.52191  -0.46574
 Alpha  occ. eigenvalues --   -0.45811  -0.44785
 Alpha virt. eigenvalues --   -0.25547  -0.14927  -0.14181  -0.13076  -0.11181
 Alpha virt. eigenvalues --   -0.10119  -0.09249  -0.07995  -0.07934  -0.07488
 Alpha virt. eigenvalues --   -0.07138  -0.06941  -0.05737  -0.05625  -0.05296

 Mulliken charges:
               1
     1  C   -0.175969
     2  C   -0.363091
     3  C   -0.475196
     4  C    0.151067
     5  C   -0.016528
     6  C   -0.498073
     7  C   -0.337668
     8  C    0.109568
     9  C   -0.488043
    10  C   -0.073531
    11  C   -0.420665
    12  C    0.803164
    13  C   -0.377115
    14  C    0.554352
    15  H    0.257371
    16  H    0.251602
    17  H    0.260006
    18  H    0.235475
    19  H    0.114670
    20  H    0.239624
    21  H    0.252909
    22  H    0.251129
    23  H    0.242731
    24  H    0.251105
    25  H    0.251105
 Sum of Mulliken charges =   1.00000

 Dipole moment (field-independent basis, Debye):
    X=              0.1676    Y=              0.2707    Z=              0.0000  Tot=              0.3184
 Quadrupole moment (field-independent basis, Debye-Ang):
   XX=            -30.0066   YY=            -56.3310   ZZ=            -84.4891
   XY=              0.3041   XZ=              0.0000   YZ=             -0.0000

 Normal termination of Gaussian 16 at Tue Aug  2 13:01:29 2022.
