 Gaussian 16, Revision C.01,
 Gaussian 16:  ES64L-G16RevC.01  3-Jul-2019

 ---------------------------------------------------------------
 #n M062X/6-311++G(d,p) TD(NStates=1) EmpiricalDispersion=GD3 SP
 ---------------------------------------------------------------

 -----
 SP_-8
 -----
 Symbolic Z-matrix:
 Charge =  1 Multiplicity = 1

                         Standard orientation:
 ---------------------------------------------------------------------
 Center     Atomic      Atomic             Coordinates (Angstroms)
 Number     Number       Type             X           Y           Z
 ---------------------------------------------------------------------
      1          6           0        0.485863    2.575741    0.000000
      2          6           0       -0.357314    3.693280    0.000000
      3          6           0       -1.718313    3.416757    0.000000
      4          6           0       -2.239647    2.044517    0.000000
      5          6           0       -0.462516   -2.757531    0.000000
      6          6           0        0.578200   -3.668707    0.000000
      7          6           0        1.909250   -3.253775    0.000000
      8          6           0        2.183993   -1.893042    0.000000
      9          6           0        1.250542    0.456369    0.000000
     10          6           0       -1.454252   -0.543444    0.000000
     11          6           0        0.000000    1.255733    0.000000
     12          6           0       -1.349004    0.899935    0.000000
     13          6           0        1.112012   -0.981999    0.000000
     14          6           0       -0.257419   -1.377260    0.000000
     15          1           0        1.590320    2.691301    0.000000
     16          1           0        0.044010    4.715097    0.000000
     17          1           0       -2.435814    4.243800    0.000000
     18          1           0       -3.340820    1.921422    0.000000
     19          1           0       -2.421744   -1.082005    0.000000
     20          1           0       -1.483937   -3.116284    0.000000
     21          1           0        0.343238   -4.716735    0.000000
     22          1           0        2.702667   -3.989508    0.000000
     23          1           0        3.203447   -1.526308    0.000000
     24          1           0        1.855130    0.829887    0.859585
     25          1           0        1.855130    0.829887   -0.859585
 ---------------------------------------------------------------------

 SCF Done:  E(RM062X) =  -539.706000119     A.U. after   15 cycles

 Excitation energies and oscillator strengths:

 Excited State   1:      Singlet-A'     2.5112 eV  493.73 nm  f=0.0257  <S**2>=0.000
      47 -> 48         0.70462
 This state for optimization and/or second-order correction.
 Total Energy, E(TD-HF/TD-DFT) =  -539.613716288
 Copying the excited state density for this state as the 1-particle RhoCI density.

 The electronic state is 1-A'.
 Alpha  occ. eigenvalues --  -10.79278 -10.73972 -10.73127 -10.72990 -10.72957
 Alpha  occ. eigenvalues --  -10.72891 -10.71190 -10.71076 -10.70897 -10.70843
 Alpha  occ. eigenvalues --  -10.70698 -10.70267 -10.69825 -10.69202  -1.16439
 Alpha  occ. eigenvalues --   -1.12163  -1.06614  -1.05873  -1.01245  -0.99956
 Alpha  occ. eigenvalues --   -0.95306  -0.90545  -0.86975  -0.85198  -0.83288
 Alpha  occ. eigenvalues --   -0.77959  -0.75830  -0.73821  -0.69572  -0.69171
 Alpha  occ. eigenvalues --   -0.68692  -0.68323  -0.67712  -0.64680  -0.64251
 Alpha  occ. eigenvalues --   -0.62038  -0.60804  -0.59695  -0.59074  -0.58872
 Alpha  occ. eigenvalues --   -0.56575  -0.55383  -0.54148  -0.52271  -0.46589
 Alpha  occ. eigenvalues --   -0.45987  -0.43682
 Alpha virt. eigenvalues --   -0.26432  -0.15146  -0.14453  -0.12794  -0.11326
 Alpha virt. eigenvalues --   -0.10156  -0.09220  -0.08136  -0.08056  -0.07571
 Alpha virt. eigenvalues --   -0.07400  -0.07384  -0.05735  -0.05620  -0.05384

 Mulliken charges:
               1
     1  C    0.327724
     2  C   -0.400601
     3  C   -0.434228
     4  C   -0.034384
     5  C    0.091151
     6  C   -0.311387
     7  C   -0.320316
     8  C   -0.333175
     9  C   -0.493059
    10  C   -0.200241
    11  C    0.108863
    12  C    0.079876
    13  C   -0.489521
    14  C    0.712136
    15  H    0.249113
    16  H    0.268404
    17  H    0.243861
    18  H    0.263589
    19  H    0.237427
    20  H    0.196364
    21  H    0.248918
    22  H    0.260413
    23  H    0.225329
    24  H    0.251872
    25  H    0.251872
 Sum of Mulliken charges =   1.00000

 Dipole moment (field-independent basis, Debye):
    X=             -0.0663    Y=             -0.0464    Z=             -0.0000  Tot=              0.0810
 Quadrupole moment (field-independent basis, Debye-Ang):
   XX=            -53.2586   YY=            -34.3495   ZZ=            -84.5830
   XY=             -7.5715   XZ=             -0.0000   YZ=              0.0000

 Normal termination of Gaussian 16 at Tue Aug  2 12:03:59 2022.
