 Gaussian 16, Revision C.01,
 Gaussian 16:  ES64L-G16RevC.01  3-Jul-2019

 ---------------------------------------------------------------
 #n M062X/6-311++G(d,p) TD(NStates=1) EmpiricalDispersion=GD3 SP
 ---------------------------------------------------------------

 -----
 SP_10
 -----
 Symbolic Z-matrix:
 Charge =  1 Multiplicity = 1

                         Standard orientation:
 ---------------------------------------------------------------------
 Center     Atomic      Atomic             Coordinates (Angstroms)
 Number     Number       Type             X           Y           Z
 ---------------------------------------------------------------------
      1          6           0       -2.240119   -1.943180    0.000000
      2          6           0       -1.875616   -3.294877    0.000000
      3          6           0       -0.523253   -3.655666    0.000000
      4          6           0        0.452007   -2.689803    0.000000
      5          6           0        2.272392    1.994449    0.000000
      6          6           0        1.797661    3.380107    0.000000
      7          6           0        0.446868    3.684544    0.000000
      8          6           0       -0.428290    2.594756    0.000000
      9          6           0       -1.301894    0.494542    0.000000
     10          6           0        1.387722   -0.547141    0.000000
     11          6           0       -1.218236   -0.964003    0.000000
     12          6           0        0.164704   -1.334438    0.000000
     13          6           0        0.000000    1.259250    0.000000
     14          6           0        1.342149    0.893299    0.000000
     15          1           0       -3.286648   -1.654674    0.000000
     16          1           0       -2.629770   -4.075660    0.000000
     17          1           0       -0.235702   -4.693177    0.000000
     18          1           0        1.499256   -2.974123    0.000000
     19          1           0        2.330388   -1.139825    0.000000
     20          1           0        3.361962    1.831765    0.000000
     21          1           0        2.536545    4.187543    0.000000
     22          1           0        0.067559    4.711463    0.000000
     23          1           0       -1.519893    2.753711    0.000000
     24          1           0       -1.890137    0.910971    0.859585
     25          1           0       -1.890137    0.910971   -0.859585
 ---------------------------------------------------------------------

 SCF Done:  E(RM062X) =  -539.701415449     A.U. after   15 cycles

 Excitation energies and oscillator strengths:

 Excited State   1:      Singlet-A'     2.6148 eV  474.17 nm  f=0.0280  <S**2>=0.000
      47 -> 48         0.70433
 This state for optimization and/or second-order correction.
 Total Energy, E(TD-HF/TD-DFT) =  -539.605324958
 Copying the excited state density for this state as the 1-particle RhoCI density.

 The electronic state is 1-A'.
 Alpha  occ. eigenvalues --  -10.79063 -10.73650 -10.73622 -10.73010 -10.72798
 Alpha  occ. eigenvalues --  -10.72667 -10.71510 -10.71492 -10.70917 -10.70800
 Alpha  occ. eigenvalues --  -10.70686 -10.70626 -10.69596 -10.69211  -1.16417
 Alpha  occ. eigenvalues --   -1.12236  -1.06637  -1.05703  -1.01312  -1.00001
 Alpha  occ. eigenvalues --   -0.95302  -0.90489  -0.87210  -0.84939  -0.83370
 Alpha  occ. eigenvalues --   -0.77902  -0.75773  -0.73823  -0.69704  -0.69255
 Alpha  occ. eigenvalues --   -0.68479  -0.67850  -0.67627  -0.64615  -0.64064
 Alpha  occ. eigenvalues --   -0.62065  -0.60832  -0.59761  -0.59172  -0.58799
 Alpha  occ. eigenvalues --   -0.56271  -0.55402  -0.54324  -0.52231  -0.46684
 Alpha  occ. eigenvalues --   -0.45991  -0.43884
 Alpha virt. eigenvalues --   -0.26238  -0.15099  -0.14421  -0.12834  -0.11307
 Alpha virt. eigenvalues --   -0.10183  -0.09231  -0.08120  -0.08045  -0.07593
 Alpha virt. eigenvalues --   -0.07331  -0.07327  -0.05765  -0.05611  -0.05350

 Mulliken charges:
               1
     1  C   -0.481795
     2  C   -0.291874
     3  C   -0.324078
     4  C    0.026881
     5  C   -0.094293
     6  C   -0.451590
     7  C   -0.382440
     8  C    0.379194
     9  C   -0.511586
    10  C   -0.213244
    11  C   -0.340752
    12  C    0.856497
    13  C    0.249597
    14  C   -0.104467
    15  H    0.226451
    16  H    0.261684
    17  H    0.253489
    18  H    0.184993
    19  H    0.234595
    20  H    0.258747
    21  H    0.246441
    22  H    0.265684
    23  H    0.246392
    24  H    0.252736
    25  H    0.252736
 Sum of Mulliken charges =   1.00000

 Dipole moment (field-independent basis, Debye):
    X=              0.0807    Y=             -0.1379    Z=              0.0000  Tot=              0.1597
 Quadrupole moment (field-independent basis, Debye-Ang):
   XX=            -53.1851   YY=            -34.1253   ZZ=            -84.6008
   XY=              8.0376   XZ=             -0.0000   YZ=              0.0000

 Normal termination of Gaussian 16 at Tue Aug  2 13:45:52 2022.
