 Gaussian 16, Revision C.01,
 Gaussian 16:  ES64L-G16RevC.01  3-Jul-2019

 ---------------------------------------------------------------
 #n M062X/6-311++G(d,p) TD(NStates=1) EmpiricalDispersion=GD3 SP
 ---------------------------------------------------------------

 ----
 SP_6
 ----
 Symbolic Z-matrix:
 Charge =  1 Multiplicity = 1

                         Standard orientation:
 ---------------------------------------------------------------------
 Center     Atomic      Atomic             Coordinates (Angstroms)
 Number     Number       Type             X           Y           Z
 ---------------------------------------------------------------------
      1          6           0        2.396717    1.775364    0.000000
      2          6           0        2.111301    3.159190    0.000000
      3          6           0        0.791250    3.621927    0.000000
      4          6           0       -0.240149    2.699098    0.000000
      5          6           0       -2.382989   -1.631239    0.000000
      6          6           0       -2.245840   -3.047164    0.000000
      7          6           0       -0.988859   -3.616520    0.000000
      8          6           0        0.122483   -2.779453    0.000000
      9          6           0        1.362220   -0.662588    0.000000
     10          6           0       -1.223855    0.612150    0.000000
     11          6           0        1.330619    0.824714    0.000000
     12          6           0        0.000000    1.331092    0.000000
     13          6           0        0.023531   -1.377078    0.000000
     14          6           0       -1.247594   -0.800079    0.000000
     15          1           0        3.438783    1.446694    0.000000
     16          1           0        2.924605    3.879885    0.000000
     17          1           0        0.571795    4.684129    0.000000
     18          1           0       -1.279972    3.030925    0.000000
     19          1           0       -2.136136    1.204043    0.000000
     20          1           0       -3.375729   -1.198658    0.000000
     21          1           0       -3.134086   -3.671196    0.000000
     22          1           0       -0.853937   -4.687614    0.000000
     23          1           0        1.114239   -3.215780    0.000000
     24          1           0        1.938717   -1.064451    0.859585
     25          1           0        1.938717   -1.064451   -0.859585
 ---------------------------------------------------------------------

 SCF Done:  E(RM062X) =  -539.743681105     A.U. after   15 cycles

 Excitation energies and oscillator strengths:

 Excited State   1:      Singlet-A'     2.9003 eV  427.49 nm  f=0.0308  <S**2>=0.000
      47 -> 48         0.70366
 This state for optimization and/or second-order correction.
 Total Energy, E(TD-HF/TD-DFT) =  -539.637096580
 Copying the excited state density for this state as the 1-particle RhoCI density.

 The electronic state is 1-A'.
 Alpha  occ. eigenvalues --  -10.77434 -10.74055 -10.73192 -10.72339 -10.72179
 Alpha  occ. eigenvalues --  -10.71716 -10.71676 -10.71647 -10.71137 -10.71126
 Alpha  occ. eigenvalues --  -10.70749 -10.69900 -10.69635 -10.69603  -1.16424
 Alpha  occ. eigenvalues --   -1.12351  -1.06815  -1.05504  -1.01244  -1.00129
 Alpha  occ. eigenvalues --   -0.95592  -0.90829  -0.86859  -0.85406  -0.83695
 Alpha  occ. eigenvalues --   -0.78171  -0.75803  -0.74153  -0.69807  -0.69334
 Alpha  occ. eigenvalues --   -0.68183  -0.67889  -0.67661  -0.64457  -0.63986
 Alpha  occ. eigenvalues --   -0.62868  -0.61711  -0.60054  -0.59562  -0.58916
 Alpha  occ. eigenvalues --   -0.56606  -0.55307  -0.54773  -0.52309  -0.46638
 Alpha  occ. eigenvalues --   -0.45984  -0.44571
 Alpha virt. eigenvalues --   -0.25863  -0.14808  -0.14161  -0.12913  -0.11196
 Alpha virt. eigenvalues --   -0.10123  -0.09242  -0.07997  -0.07975  -0.07500
 Alpha virt. eigenvalues --   -0.07183  -0.07086  -0.05705  -0.05595  -0.05311

 Mulliken charges:
               1
     1  C   -0.138820
     2  C   -0.391695
     3  C   -0.430636
     4  C    0.123346
     5  C   -0.223834
     6  C   -0.470212
     7  C   -0.332667
     8  C    0.227240
     9  C   -0.508340
    10  C   -0.048892
    11  C   -0.525779
    12  C    0.957110
    13  C   -0.439271
    14  C    0.571265
    15  H    0.250339
    16  H    0.253757
    17  H    0.256609
    18  H    0.211947
    19  H    0.177818
    20  H    0.230902
    21  H    0.249811
    22  H    0.256030
    23  H    0.239663
    24  H    0.252153
    25  H    0.252153
 Sum of Mulliken charges =   1.00000

 Dipole moment (field-independent basis, Debye):
    X=             -0.1299    Y=              0.2403    Z=              0.0000  Tot=              0.2732
 Quadrupole moment (field-independent basis, Debye-Ang):
   XX=            -51.5135   YY=            -35.4158   ZZ=            -84.3384
   XY=             10.0593   XZ=              0.0000   YZ=             -0.0000

 Normal termination of Gaussian 16 at Tue Aug  2 13:16:52 2022.
