 Gaussian 16, Revision C.01,
 Gaussian 16:  ES64L-G16RevC.01  3-Jul-2019

 ---------------------------------------------------------------
 #n M062X/6-311++G(d,p) TD(NStates=1) EmpiricalDispersion=GD3 SP
 ---------------------------------------------------------------

 -----
 SP_-2
 -----
 Symbolic Z-matrix:
 Charge =  1 Multiplicity = 1

                         Standard orientation:
 ---------------------------------------------------------------------
 Center     Atomic      Atomic             Coordinates (Angstroms)
 Number     Number       Type             X           Y           Z
 ---------------------------------------------------------------------
      1          6           0        0.017321   -2.827488    0.000000
      2          6           0        1.198680   -3.563531    0.000000
      3          6           0        2.407988   -2.890691    0.000000
      4          6           0        2.431662   -1.481622    0.000000
      5          6           0        0.070370    2.787279    0.000000
      6          6           0       -1.079867    3.576492    0.000000
      7          6           0       -2.330558    2.971409    0.000000
      8          6           0       -2.426930    1.577290    0.000000
      9          6           0       -1.300096   -0.715591    0.000000
     10          6           0        1.222974    0.678561    0.000000
     11          6           0        0.018397   -1.419439    0.000000
     12          6           0        1.244874   -0.736201    0.000000
     13          6           0       -1.266538    0.768677    0.000000
     14          6           0       -0.000000    1.394965    0.000000
     15          1           0       -0.934673   -3.344270    0.000000
     16          1           0        1.163947   -4.642327    0.000000
     17          1           0        3.341589   -3.438784    0.000000
     18          1           0        3.383910   -0.966762    0.000000
     19          1           0        2.147175    1.237810    0.000000
     20          1           0        1.047074    3.257145    0.000000
     21          1           0       -0.988946    4.654137    0.000000
     22          1           0       -3.225930    3.576525    0.000000
     23          1           0       -3.405110    1.108683    0.000000
     24          1           0       -1.889353   -1.081403    0.859585
     25          1           0       -1.889353   -1.081403   -0.859585
 ---------------------------------------------------------------------

 SCF Done:  E(RM062X) =  -539.759607744     A.U. after   15 cycles

 Excitation energies and oscillator strengths:

 Excited State   1:      Singlet-A'     2.8716 eV  431.77 nm  f=0.0297  <S**2>=0.000
      47 -> 48         0.70399
 This state for optimization and/or second-order correction.
 Total Energy, E(TD-HF/TD-DFT) =  -539.654079708
 Copying the excited state density for this state as the 1-particle RhoCI density.

 The electronic state is 1-A'.
 Alpha  occ. eigenvalues --  -10.77430 -10.73511 -10.73263 -10.72336 -10.72238
 Alpha  occ. eigenvalues --  -10.71474 -10.71219 -10.71194 -10.71193 -10.70934
 Alpha  occ. eigenvalues --  -10.70324 -10.69894 -10.69720 -10.69571  -1.16437
 Alpha  occ. eigenvalues --   -1.12448  -1.06929  -1.05643  -1.01295  -1.00187
 Alpha  occ. eigenvalues --   -0.95750  -0.91027  -0.86510  -0.85812  -0.83808
 Alpha  occ. eigenvalues --   -0.78361  -0.75966  -0.74381  -0.69644  -0.69250
 Alpha  occ. eigenvalues --   -0.68416  -0.68123  -0.67956  -0.64644  -0.64174
 Alpha  occ. eigenvalues --   -0.63132  -0.61902  -0.60084  -0.59658  -0.59063
 Alpha  occ. eigenvalues --   -0.56846  -0.55214  -0.54867  -0.52408  -0.46637
 Alpha  occ. eigenvalues --   -0.46031  -0.44585
 Alpha virt. eigenvalues --   -0.25985  -0.14684  -0.14091  -0.12808  -0.11172
 Alpha virt. eigenvalues --   -0.10090  -0.09235  -0.07980  -0.07964  -0.07477
 Alpha virt. eigenvalues --   -0.07177  -0.07103  -0.05655  -0.05585  -0.05320

 Mulliken charges:
               1
     1  C    0.134663
     2  C   -0.377552
     3  C   -0.453076
     4  C   -0.066182
     5  C    0.057556
     6  C   -0.432068
     7  C   -0.402723
     8  C    0.015517
     9  C   -0.399107
    10  C    0.028025
    11  C   -0.585086
    12  C    0.660915
    13  C   -0.594665
    14  C    0.796155
    15  H    0.238499
    16  H    0.255606
    17  H    0.249188
    18  H    0.226032
    19  H    0.180706
    20  H    0.219906
    21  H    0.251089
    22  H    0.254276
    23  H    0.240748
    24  H    0.250788
    25  H    0.250788
 Sum of Mulliken charges =   1.00000

 Dipole moment (field-independent basis, Debye):
    X=              0.1594    Y=              0.1363    Z=              0.0000  Tot=              0.2098
 Quadrupole moment (field-independent basis, Debye-Ang):
   XX=            -50.4407   YY=            -36.7739   ZZ=            -84.1706
   XY=            -10.7097   XZ=             -0.0000   YZ=             -0.0000

 Normal termination of Gaussian 16 at Tue Aug  2 12:34:53 2022.
