 Gaussian 16, Revision C.01,
 Gaussian 16:  ES64L-G16RevC.01  3-Jul-2019

 ---------------------------------------------------------------
 #n M062X/6-311++G(d,p) TD(NStates=1) EmpiricalDispersion=GD3 SP
 ---------------------------------------------------------------

 ----
 SP_0
 ----
 Symbolic Z-matrix:
 Charge =  1 Multiplicity = 1

                         Standard orientation:
 ---------------------------------------------------------------------
 Center     Atomic      Atomic             Coordinates (Angstroms)
 Number     Number       Type             X           Y           Z
 ---------------------------------------------------------------------
      1          6           0        0.000000    2.362655   -1.377273
      2          6           0        0.000000    3.641508   -0.838831
      3          6           0        0.000000    3.733861    0.546988
      4          6           0        0.000000    2.583156    1.390696
      5          6           0       -0.000000   -2.583156    1.390696
      6          6           0       -0.000000   -3.733861    0.546988
      7          6           0       -0.000000   -3.641508   -0.838831
      8          6           0       -0.000000   -2.362655   -1.377273
      9          6           0       -0.000000    0.000000   -1.300211
     10          6           0        0.000000   -0.000000    1.582347
     11          6           0        0.000000    1.232055   -0.543907
     12          6           0        0.000000    1.257471    0.863962
     13          6           0       -0.000000   -1.232055   -0.543907
     14          6           0       -0.000000   -1.257471    0.863962
     15          1           0        0.000000    2.198071   -2.460489
     16          1           0        0.000000    4.526753   -1.468531
     17          1           0        0.000000    4.709262    1.015507
     18          1           0        0.000000    2.737550    2.473217
     19          1           0        0.000000   -0.000000    2.673424
     20          1           0       -0.000000   -2.737550    2.473217
     21          1           0       -0.000000   -4.709262    1.015507
     22          1           0       -0.000000   -4.526753   -1.468531
     23          1           0       -0.000000   -2.198071   -2.460489
     24          1           0        0.859585   -0.000000   -1.992629
     25          1           0       -0.859585    0.000000   -1.992629
 ---------------------------------------------------------------------

 SCF Done:  E(RM062X) =  -539.732225625     A.U. after   15 cycles

 Excitation energies and oscillator strengths:

 Excited State   1:      Singlet-A1     2.5194 eV  492.11 nm  f=0.0232  <S**2>=0.000
      47 -> 48         0.70531
 This state for optimization and/or second-order correction.
 Total Energy, E(TD-HF/TD-DFT) =  -539.639638004
 Copying the excited state density for this state as the 1-particle RhoCI density.

 The electronic state is 1-A1.
 Alpha  occ. eigenvalues --  -10.78973 -10.73441 -10.73439 -10.72797 -10.72796
 Alpha  occ. eigenvalues --  -10.71938 -10.71938 -10.71011 -10.71011 -10.70203
 Alpha  occ. eigenvalues --  -10.69892 -10.69892 -10.69851 -10.69851  -1.16470
 Alpha  occ. eigenvalues --   -1.12122  -1.06710  -1.06042  -1.01132  -0.99921
 Alpha  occ. eigenvalues --   -0.95552  -0.90788  -0.86308  -0.85891  -0.83419
 Alpha  occ. eigenvalues --   -0.78123  -0.75954  -0.74050  -0.69381  -0.69045
 Alpha  occ. eigenvalues --   -0.68836  -0.68814  -0.68134  -0.64723  -0.64440
 Alpha  occ. eigenvalues --   -0.62242  -0.61249  -0.59437  -0.59395  -0.58978
 Alpha  occ. eigenvalues --   -0.57019  -0.55326  -0.54278  -0.52389  -0.46425
 Alpha  occ. eigenvalues --   -0.46000  -0.43786
 Alpha virt. eigenvalues --   -0.26538  -0.14934  -0.14391  -0.12856  -0.11290
 Alpha virt. eigenvalues --   -0.10107  -0.09211  -0.08068  -0.08048  -0.07473
 Alpha virt. eigenvalues --   -0.07414  -0.07395  -0.05679  -0.05608  -0.05406

 Mulliken charges:
               1
     1  C   -0.025037
     2  C   -0.351319
     3  C   -0.406004
     4  C    0.154143
     5  C    0.154143
     6  C   -0.406004
     7  C   -0.351319
     8  C   -0.025037
     9  C   -0.389092
    10  C   -0.054133
    11  C   -0.396285
    12  C    0.403157
    13  C   -0.396285
    14  C    0.403157
    15  H    0.239463
    16  H    0.264126
    17  H    0.241999
    18  H    0.238237
    19  H    0.224305
    20  H    0.238237
    21  H    0.241999
    22  H    0.264126
    23  H    0.239463
    24  H    0.246980
    25  H    0.246980
 Sum of Mulliken charges =   1.00000

 Dipole moment (field-independent basis, Debye):
    X=             -0.0000    Y=             -0.0000    Z=              0.0726  Tot=              0.0726
 Quadrupole moment (field-independent basis, Debye-Ang):
   XX=            -84.4186   YY=            -32.0520   ZZ=            -55.8063
   XY=              0.0000   XZ=             -0.0000   YZ=              0.0000

 Normal termination of Gaussian 16 at Tue Aug  2 12:48:15 2022.
