 Gaussian 16, Revision C.01,
 Gaussian 16:  ES64L-G16RevC.01  3-Jul-2019

 ---------------------------------------------------------------
 #n M062X/6-311++G(d,p) TD(NStates=1) EmpiricalDispersion=GD3 SP
 ---------------------------------------------------------------

 ------
 SP_-10
 ------
 Symbolic Z-matrix:
 Charge =  1 Multiplicity = 1

                         Standard orientation:
 ---------------------------------------------------------------------
 Center     Atomic      Atomic             Coordinates (Angstroms)
 Number     Number       Type             X           Y           Z
 ---------------------------------------------------------------------
      1          6           0        0.487813    2.562669    0.000000
      2          6           0       -0.342744    3.691197    0.000000
      3          6           0       -1.705813    3.432871    0.000000
      4          6           0       -2.239127    2.060269    0.000000
      5          6           0       -0.491344   -2.702684    0.000000
      6          6           0        0.489923   -3.663903    0.000000
      7          6           0        1.841927   -3.307446    0.000000
      8          6           0        2.198668   -1.958792    0.000000
      9          6           0        1.281763    0.460692    0.000000
     10          6           0       -1.426782   -0.530734    0.000000
     11          6           0        0.000000    1.245047    0.000000
     12          6           0       -1.351840    0.913653    0.000000
     13          6           0        1.172900   -0.989096    0.000000
     14          6           0       -0.213588   -1.343224    0.000000
     15          1           0        1.592137    2.670859    0.000000
     16          1           0        0.075836    4.706969    0.000000
     17          1           0       -2.415538    4.269027    0.000000
     18          1           0       -3.340866    1.946412    0.000000
     19          1           0       -2.382220   -1.106386    0.000000
     20          1           0       -1.534376   -2.995969    0.000000
     21          1           0        0.203322   -4.699786    0.000000
     22          1           0        2.595412   -4.087033    0.000000
     23          1           0        3.240436   -1.659408    0.000000
     24          1           0        1.877658    0.866096    0.859585
     25          1           0        1.877658    0.866096   -0.859585
 ---------------------------------------------------------------------

 SCF Done:  E(RM062X) =  -539.694332819     A.U. after   15 cycles

 Excitation energies and oscillator strengths:

 Excited State   1:      Singlet-A'     2.5449 eV  487.19 nm  f=0.0270  <S**2>=0.000
      47 -> 48         0.70444
 This state for optimization and/or second-order correction.
 Total Energy, E(TD-HF/TD-DFT) =  -539.600809281
 Copying the excited state density for this state as the 1-particle RhoCI density.

 The electronic state is 1-A'.
 Alpha  occ. eigenvalues --  -10.79324 -10.73929 -10.73431 -10.73040 -10.73029
 Alpha  occ. eigenvalues --  -10.72773 -10.71394 -10.71345 -10.71024 -10.70784
 Alpha  occ. eigenvalues --  -10.70657 -10.70614 -10.69728 -10.69147  -1.16422
 Alpha  occ. eigenvalues --   -1.12187  -1.06593  -1.05754  -1.01297  -0.99969
 Alpha  occ. eigenvalues --   -0.95227  -0.90436  -0.87186  -0.84964  -0.83266
 Alpha  occ. eigenvalues --   -0.77860  -0.75769  -0.73742  -0.69693  -0.69185
 Alpha  occ. eigenvalues --   -0.68552  -0.67997  -0.67606  -0.64636  -0.64099
 Alpha  occ. eigenvalues --   -0.61944  -0.60673  -0.59735  -0.59049  -0.58799
 Alpha  occ. eigenvalues --   -0.56310  -0.55389  -0.54165  -0.52215  -0.46669
 Alpha  occ. eigenvalues --   -0.45978  -0.43717
 Alpha virt. eigenvalues --   -0.26331  -0.15188  -0.14474  -0.12808  -0.11333
 Alpha virt. eigenvalues --   -0.10186  -0.09227  -0.08156  -0.08056  -0.07607
 Alpha virt. eigenvalues --   -0.07377  -0.07360  -0.05769  -0.05621  -0.05363

 Mulliken charges:
               1
     1  C    0.384885
     2  C   -0.395812
     3  C   -0.438021
     4  C   -0.106665
     5  C    0.015560
     6  C   -0.308974
     7  C   -0.292908
     8  C   -0.436324
     9  C   -0.544120
    10  C   -0.251711
    11  C    0.300517
    12  C   -0.019041
    13  C   -0.427664
    14  C    0.824526
    15  H    0.248955
    16  H    0.267844
    17  H    0.245597
    18  H    0.264553
    19  H    0.241510
    20  H    0.184013
    21  H    0.252118
    22  H    0.261442
    23  H    0.224600
    24  H    0.252559
    25  H    0.252559
 Sum of Mulliken charges =   1.00000

 Dipole moment (field-independent basis, Debye):
    X=             -0.0683    Y=             -0.0933    Z=              0.0000  Tot=              0.1157
 Quadrupole moment (field-independent basis, Debye-Ang):
   XX=            -53.4230   YY=            -33.9938   ZZ=            -84.6540
   XY=             -7.5684   XZ=             -0.0000   YZ=              0.0000

 Normal termination of Gaussian 16 at Tue Aug  2 11:50:38 2022.
