 Gaussian 16, Revision C.01,
 Gaussian 16:  ES64L-G16RevC.01  3-Jul-2019

 ---------------------------------------------------------------
 #n M062X/6-311++G(d,p) TD(NStates=1) EmpiricalDispersion=GD3 SP
 ---------------------------------------------------------------

 ----
 SP_4
 ----
 Symbolic Z-matrix:
 Charge =  1 Multiplicity = 1

                         Standard orientation:
 ---------------------------------------------------------------------
 Center     Atomic      Atomic             Coordinates (Angstroms)
 Number     Number       Type             X           Y           Z
 ---------------------------------------------------------------------
      1          6           0       -2.224315   -1.738135    0.000000
      2          6           0       -2.095991   -3.117788    0.000000
      3          6           0       -0.812784   -3.651937    0.000000
      4          6           0        0.326118   -2.836436    0.000000
      5          6           0        2.297333    1.887610    0.000000
      6          6           0        1.913755    3.278925    0.000000
      7          6           0        0.585622    3.679494    0.000000
      8          6           0       -0.365127    2.663439    0.000000
      9          6           0       -1.229449    0.509748    0.000000
     10          6           0        1.431268   -0.599901    0.000000
     11          6           0       -1.077231   -0.928182    0.000000
     12          6           0        0.246131   -1.432169    0.000000
     13          6           0       -0.000000    1.307644    0.000000
     14          6           0        1.319982    0.838229    0.000000
     15          1           0       -3.201265   -1.264014    0.000000
     16          1           0       -2.962733   -3.765010    0.000000
     17          1           0       -0.678050   -4.720164    0.000000
     18          1           0        1.305471   -3.302696    0.000000
     19          1           0        2.404946   -1.097937    0.000000
     20          1           0        3.369252    1.652276    0.000000
     21          1           0        2.700058    4.029665    0.000000
     22          1           0        0.295964    4.729930    0.000000
     23          1           0       -1.440739    2.891430    0.000000
     24          1           0       -1.842389    0.841634    0.859585
     25          1           0       -1.842389    0.841634   -0.859585
 ---------------------------------------------------------------------

 SCF Done:  E(RM062X) =  -539.732485365     A.U. after   15 cycles

 Excitation energies and oscillator strengths:

 Excited State   1:      Singlet-A'     2.5664 eV  483.10 nm  f=0.0249  <S**2>=0.000
      47 -> 48         0.70492
 This state for optimization and/or second-order correction.
 Total Energy, E(TD-HF/TD-DFT) =  -539.638170482
 Copying the excited state density for this state as the 1-particle RhoCI density.

 The electronic state is 1-A'.
 Alpha  occ. eigenvalues --  -10.78861 -10.73547 -10.73010 -10.72921 -10.72869
 Alpha  occ. eigenvalues --  -10.72339 -10.71271 -10.71041 -10.70993 -10.70478
 Alpha  occ. eigenvalues --  -10.70217 -10.69975 -10.69765 -10.69459  -1.16453
 Alpha  occ. eigenvalues --   -1.12222  -1.06741  -1.05968  -1.01212  -0.99993
 Alpha  occ. eigenvalues --   -0.95555  -0.90796  -0.86600  -0.85616  -0.83482
 Alpha  occ. eigenvalues --   -0.78163  -0.75961  -0.74088  -0.69395  -0.69162
 Alpha  occ. eigenvalues --   -0.68813  -0.68570  -0.68009  -0.64756  -0.64409
 Alpha  occ. eigenvalues --   -0.62345  -0.61249  -0.59646  -0.59341  -0.58990
 Alpha  occ. eigenvalues --   -0.56897  -0.55330  -0.54361  -0.52383  -0.46507
 Alpha  occ. eigenvalues --   -0.46027  -0.43888
 Alpha virt. eigenvalues --   -0.26450  -0.14923  -0.14341  -0.12805  -0.11277
 Alpha virt. eigenvalues --   -0.10114  -0.09217  -0.08061  -0.08036  -0.07497
 Alpha virt. eigenvalues --   -0.07372  -0.07362  -0.05680  -0.05602  -0.05391

 Mulliken charges:
               1
     1  C   -0.200859
     2  C   -0.345388
     3  C   -0.369357
     4  C    0.175365
     5  C    0.102869
     6  C   -0.438641
     7  C   -0.378923
     8  C    0.144927
     9  C   -0.396061
    10  C   -0.101198
    11  C   -0.437179
    12  C    0.545481
    13  C   -0.184519
    14  C    0.205438
    15  H    0.230727
    16  H    0.260510
    17  H    0.245646
    18  H    0.217184
    19  H    0.223960
    20  H    0.250208
    21  H    0.242613
    22  H    0.265187
    23  H    0.243831
    24  H    0.249089
    25  H    0.249089
 Sum of Mulliken charges =   1.00000

 Dipole moment (field-independent basis, Debye):
    X=              0.0846    Y=             -0.0428    Z=             -0.0000  Tot=              0.0949
 Quadrupole moment (field-independent basis, Debye-Ang):
   XX=            -52.4905   YY=            -35.2561   ZZ=            -84.3857
   XY=              8.4241   XZ=             -0.0000   YZ=             -0.0000

 Normal termination of Gaussian 16 at Tue Aug  2 13:11:22 2022.
