 Gaussian 16, Revision C.01,
 Gaussian 16:  ES64L-G16RevC.01  3-Jul-2019

 ---------------------------------------------------------------
 #n M062X/6-311++G(d,p) TD(NStates=1) EmpiricalDispersion=GD3 SP
 ---------------------------------------------------------------

 -----
 SP_-2
 -----
 Symbolic Z-matrix:
 Charge =  1 Multiplicity = 1

                         Standard orientation:
 ---------------------------------------------------------------------
 Center     Atomic      Atomic             Coordinates (Angstroms)
 Number     Number       Type             X           Y           Z
 ---------------------------------------------------------------------
      1          6           0        2.558080   -1.348796    0.000000
      2          6           0        3.734100   -0.583253    0.000000
      3          6           0        3.667321    0.801247    0.000000
      4          6           0        2.404282    1.416722    0.000000
      5          6           0       -2.330160    1.424735    0.000000
      6          6           0       -3.619863    0.892993    0.000000
      7          6           0       -3.764406   -0.493542    0.000000
      8          6           0       -2.635415   -1.344516    0.000000
      9          6           0       -0.006797   -1.575900    0.000000
     10          6           0        0.000000    1.306719    0.000000
     11          6           0        1.266959   -0.753402    0.000000
     12          6           0        1.235427    0.650821    0.000000
     13          6           0       -1.305821   -0.813487    0.000000
     14          6           0       -1.208116    0.597534    0.000000
     15          1           0        2.643422   -2.432852    0.000000
     16          1           0        4.690733   -1.083868    0.000000
     17          1           0        4.570377    1.405397    0.000000
     18          1           0        2.326743    2.500011    0.000000
     19          1           0       -0.040022    2.380215    0.000000
     20          1           0       -2.176497    2.505874    0.000000
     21          1           0       -4.487198    1.549603    0.000000
     22          1           0       -4.757733   -0.928027    0.000000
     23          1           0       -2.796894   -2.426278    0.000000
     24          1           0        0.026764   -2.268660    0.859585
     25          1           0        0.026764   -2.268660   -0.859585
 ---------------------------------------------------------------------

 SCF Done:  E(RM062X) =  -539.754748470     A.U. after   15 cycles

 Excitation energies and oscillator strengths:

 Excited State   1:      Singlet-A'     3.0088 eV  412.07 nm  f=0.0320  <S**2>=0.000
      47 -> 48         0.70312
 This state for optimization and/or second-order correction.
 Total Energy, E(TD-HF/TD-DFT) =  -539.644177127
 Copying the excited state density for this state as the 1-particle RhoCI density.

 The electronic state is 1-A'.
 Alpha  occ. eigenvalues --  -10.76594 -10.74058 -10.73695 -10.71889 -10.71865
 Alpha  occ. eigenvalues --  -10.71779 -10.71511 -10.71451 -10.71384 -10.71102
 Alpha  occ. eigenvalues --  -10.70975 -10.70350 -10.69780 -10.69778  -1.16411
 Alpha  occ. eigenvalues --   -1.12255  -1.06800  -1.05362  -1.01129  -1.00127
 Alpha  occ. eigenvalues --   -0.95588  -0.90883  -0.86502  -0.85818  -0.83670
 Alpha  occ. eigenvalues --   -0.78149  -0.75697  -0.74155  -0.69869  -0.69173
 Alpha  occ. eigenvalues --   -0.68142  -0.67929  -0.67610  -0.64254  -0.63772
 Alpha  occ. eigenvalues --   -0.63259  -0.61985  -0.60306  -0.59500  -0.58938
 Alpha  occ. eigenvalues --   -0.56799  -0.55183  -0.54826  -0.52280  -0.46605
 Alpha  occ. eigenvalues --   -0.45891  -0.44781
 Alpha virt. eigenvalues --   -0.25667  -0.14803  -0.14123  -0.12973  -0.11164
 Alpha virt. eigenvalues --   -0.10102  -0.09245  -0.07982  -0.07941  -0.07479
 Alpha virt. eigenvalues --   -0.07128  -0.06977  -0.05703  -0.05610  -0.05298

 Mulliken charges:
               1
     1  C    0.064144
     2  C   -0.355260
     3  C   -0.484611
     4  C    0.014481
     5  C    0.105904
     6  C   -0.468326
     7  C   -0.372095
     8  C   -0.072511
     9  C   -0.447443
    10  C   -0.050325
    11  C   -0.436592
    12  C    0.618113
    13  C   -0.456872
    14  C    0.735605
    15  H    0.242688
    16  H    0.251692
    17  H    0.252527
    18  H    0.235207
    19  H    0.133063
    20  H    0.231972
    21  H    0.255756
    22  H    0.251420
    23  H    0.248997
    24  H    0.251233
    25  H    0.251233
 Sum of Mulliken charges =   1.00000

 Dipole moment (field-independent basis, Debye):
    X=             -0.0721    Y=              0.2535    Z=              0.0000  Tot=              0.2636
 Quadrupole moment (field-independent basis, Debye-Ang):
   XX=            -30.2753   YY=            -56.3554   ZZ=            -84.3402
   XY=             -0.1450   XZ=              0.0000   YZ=             -0.0000

 Normal termination of Gaussian 16 at Tue Aug  2 12:31:36 2022.
