 Gaussian 16, Revision C.01,
 Gaussian 16:  ES64L-G16RevC.01  3-Jul-2019

 ---------------------------------------------------------------
 #n M062X/6-311++G(d,p) TD(NStates=1) EmpiricalDispersion=GD3 SP
 ---------------------------------------------------------------

 -----
 SP_-8
 -----
 Symbolic Z-matrix:
 Charge =  1 Multiplicity = 1

                         Standard orientation:
 ---------------------------------------------------------------------
 Center     Atomic      Atomic             Coordinates (Angstroms)
 Number     Number       Type             X           Y           Z
 ---------------------------------------------------------------------
      1          6           0        0.249537    2.694377    0.000000
      2          6           0       -0.759675    3.651321    0.000000
      3          6           0       -2.063626    3.197940    0.000000
      4          6           0       -2.354128    1.787002    0.000000
      5          6           0       -0.315591   -2.700052    0.000000
      6          6           0        0.698059   -3.633285    0.000000
      7          6           0        2.030418   -3.206261    0.000000
      8          6           0        2.340406   -1.834702    0.000000
      9          6           0        1.328062    0.591202    0.000000
     10          6           0       -1.299119   -0.597690    0.000000
     11          6           0        0.000000    1.315920    0.000000
     12          6           0       -1.304939    0.828576    0.000000
     13          6           0        1.286294   -0.881686    0.000000
     14          6           0       -0.067174   -1.336070    0.000000
     15          1           0        1.293517    3.005913    0.000000
     16          1           0       -0.513606    4.708031    0.000000
     17          1           0       -2.888827    3.907344    0.000000
     18          1           0       -3.397394    1.475559    0.000000
     19          1           0       -2.218655   -1.200334    0.000000
     20          1           0       -1.355457   -3.019599    0.000000
     21          1           0        0.456054   -4.686290    0.000000
     22          1           0        2.823036   -3.948684    0.000000
     23          1           0        3.380839   -1.514712    0.000000
     24          1           0        1.904673    1.006608    0.859585
     25          1           0        1.904673    1.006608   -0.859585
 ---------------------------------------------------------------------

 SCF Done:  E(RM062X) =  -539.728596543     A.U. after   15 cycles

 Excitation energies and oscillator strengths:

 Excited State   1:      Singlet-A'     2.7720 eV  447.27 nm  f=0.0295  <S**2>=0.000
      47 -> 48         0.70405
 This state for optimization and/or second-order correction.
 Total Energy, E(TD-HF/TD-DFT) =  -539.626726504
 Copying the excited state density for this state as the 1-particle RhoCI density.

 The electronic state is 1-A'.
 Alpha  occ. eigenvalues --  -10.78225 -10.73839 -10.73025 -10.72914 -10.72417
 Alpha  occ. eigenvalues --  -10.72155 -10.71596 -10.71516 -10.70947 -10.70903
 Alpha  occ. eigenvalues --  -10.70752 -10.70177 -10.69477 -10.69404  -1.16423
 Alpha  occ. eigenvalues --   -1.12344  -1.06770  -1.05628  -1.01303  -1.00088
 Alpha  occ. eigenvalues --   -0.95520  -0.90718  -0.87051  -0.85151  -0.83617
 Alpha  occ. eigenvalues --   -0.78102  -0.75829  -0.74070  -0.69693  -0.69387
 Alpha  occ. eigenvalues --   -0.68348  -0.67780  -0.67759  -0.64582  -0.64081
 Alpha  occ. eigenvalues --   -0.62522  -0.61357  -0.59861  -0.59481  -0.58883
 Alpha  occ. eigenvalues --   -0.56453  -0.55377  -0.54641  -0.52303  -0.46665
 Alpha  occ. eigenvalues --   -0.46016  -0.44285
 Alpha virt. eigenvalues --   -0.26057  -0.14882  -0.14256  -0.12866  -0.11239
 Alpha virt. eigenvalues --   -0.10147  -0.09236  -0.08027  -0.08018  -0.07534
 Alpha virt. eigenvalues --   -0.07249  -0.07207  -0.05723  -0.05594  -0.05330

 Mulliken charges:
               1
     1  C    0.314806
     2  C   -0.335639
     3  C   -0.454017
     4  C   -0.396919
     5  C    0.125465
     6  C   -0.386695
     7  C   -0.422289
     8  C   -0.167696
     9  C   -0.529951
    10  C   -0.053613
    11  C   -0.378381
    12  C    0.490982
    13  C   -0.584045
    14  C    1.121230
    15  H    0.242028
    16  H    0.260754
    17  H    0.249801
    18  H    0.234903
    19  H    0.210414
    20  H    0.197327
    21  H    0.255323
    22  H    0.255639
    23  H    0.245566
    24  H    0.252502
    25  H    0.252502
 Sum of Mulliken charges =   1.00000

 Dipole moment (field-independent basis, Debye):
    X=             -0.1077    Y=             -0.2019    Z=             -0.0000  Tot=              0.2289
 Quadrupole moment (field-independent basis, Debye-Ang):
   XX=            -52.2237   YY=            -34.9412   ZZ=            -84.4103
   XY=             -9.2922   XZ=             -0.0000   YZ=             -0.0000

 Normal termination of Gaussian 16 at Tue Aug  2 11:59:32 2022.
