 Gaussian 16, Revision C.01,
 Gaussian 16:  ES64L-G16RevC.01  3-Jul-2019

 ---------------------------------------------------------------
 #n M062X/6-311++G(d,p) TD(NStates=1) EmpiricalDispersion=GD3 SP
 ---------------------------------------------------------------

 -----
 SP_-6
 -----
 Symbolic Z-matrix:
 Charge =  1 Multiplicity = 1

                         Standard orientation:
 ---------------------------------------------------------------------
 Center     Atomic      Atomic             Coordinates (Angstroms)
 Number     Number       Type             X           Y           Z
 ---------------------------------------------------------------------
      1          6           0        2.506704   -1.349699    0.000000
      2          6           0        3.714268   -0.641441    0.000000
      3          6           0        3.704032    0.739233    0.000000
      4          6           0        2.455934    1.408844    0.000000
      5          6           0       -2.231552    1.434670    0.000000
      6          6           0       -3.558673    1.018678    0.000000
      7          6           0       -3.803969   -0.366703    0.000000
      8          6           0       -2.740236   -1.331905    0.000000
      9          6           0       -0.022314   -1.606545    0.000000
     10          6           0        0.000000    1.276551    0.000000
     11          6           0        1.235568   -0.719788    0.000000
     12          6           0        1.260839    0.675928    0.000000
     13          6           0       -1.354682   -0.897916    0.000000
     14          6           0       -1.179620    0.517532    0.000000
     15          1           0        2.547168   -2.434512    0.000000
     16          1           0        4.642236   -1.189855    0.000000
     17          1           0        4.632033    1.307492    0.000000
     18          1           0        2.425256    2.492682    0.000000
     19          1           0       -0.119363    2.351474    0.000000
     20          1           0       -1.971136    2.510195    0.000000
     21          1           0       -4.377677    1.744873    0.000000
     22          1           0       -4.841577   -0.714924    0.000000
     23          1           0       -3.010478   -2.407845    0.000000
     24          1           0        0.077871   -2.302106    0.859585
     25          1           0        0.077871   -2.302106   -0.859585
 ---------------------------------------------------------------------

 SCF Done:  E(RM062X) =  -539.732373138     A.U. after   15 cycles

 Excitation energies and oscillator strengths:

 Excited State   1:      Singlet-A'     3.0358 eV  408.41 nm  f=0.0326  <S**2>=0.000
      47 -> 48         0.70276
 This state for optimization and/or second-order correction.
 Total Energy, E(TD-HF/TD-DFT) =  -539.620811310
 Copying the excited state density for this state as the 1-particle RhoCI density.

 The electronic state is 1-A'.
 Alpha  occ. eigenvalues --  -10.76579 -10.74737 -10.73542 -10.72239 -10.72191
 Alpha  occ. eigenvalues --  -10.72046 -10.71997 -10.71786 -10.71585 -10.71576
 Alpha  occ. eigenvalues --  -10.70810 -10.70010 -10.69984 -10.69867  -1.16402
 Alpha  occ. eigenvalues --   -1.12095  -1.06616  -1.05210  -1.01022  -1.00017
 Alpha  occ. eigenvalues --   -0.95371  -0.90622  -0.86806  -0.85442  -0.83493
 Alpha  occ. eigenvalues --   -0.77898  -0.75506  -0.73820  -0.70112  -0.69198
 Alpha  occ. eigenvalues --   -0.67795  -0.67719  -0.67326  -0.64048  -0.63652
 Alpha  occ. eigenvalues --   -0.62710  -0.61739  -0.60236  -0.59352  -0.58729
 Alpha  occ. eigenvalues --   -0.56574  -0.55286  -0.54605  -0.52149  -0.46565
 Alpha  occ. eigenvalues --   -0.45806  -0.44736
 Alpha virt. eigenvalues --   -0.25530  -0.15006  -0.14214  -0.13116  -0.11203
 Alpha virt. eigenvalues --   -0.10139  -0.09250  -0.08009  -0.07937  -0.07499
 Alpha virt. eigenvalues --   -0.07158  -0.06949  -0.05755  -0.05630  -0.05296

 Mulliken charges:
               1
     1  C    0.176547
     2  C   -0.322258
     3  C   -0.501010
     4  C   -0.094798
     5  C    0.162242
     6  C   -0.478051
     7  C   -0.356034
     8  C   -0.246896
     9  C   -0.540339
    10  C   -0.094639
    11  C   -0.329353
    12  C    0.510989
    13  C   -0.408678
    14  C    0.904523
    15  H    0.241749
    16  H    0.251695
    17  H    0.252256
    18  H    0.238565
    19  H    0.121475
    20  H    0.231356
    21  H    0.262661
    22  H    0.252767
    23  H    0.262886
    24  H    0.251172
    25  H    0.251172
 Sum of Mulliken charges =   1.00000

 Dipole moment (field-independent basis, Debye):
    X=             -0.2533    Y=              0.2751    Z=              0.0000  Tot=              0.3739
 Quadrupole moment (field-independent basis, Debye-Ang):
   XX=            -29.9336   YY=            -56.3241   ZZ=            -84.5696
   XY=             -0.4586   XZ=             -0.0000   YZ=             -0.0000

 Normal termination of Gaussian 16 at Tue Aug  2 12:06:12 2022.
