 Gaussian 16, Revision C.01,
 Gaussian 16:  ES64L-G16RevC.01  3-Jul-2019

 ---------------------------------------------------------------
 #n M062X/6-311++G(d,p) TD(NStates=1) EmpiricalDispersion=GD3 SP
 ---------------------------------------------------------------

 -----
 SP_-8
 -----
 Symbolic Z-matrix:
 Charge =  1 Multiplicity = 1

                         Standard orientation:
 ---------------------------------------------------------------------
 Center     Atomic      Atomic             Coordinates (Angstroms)
 Number     Number       Type             X           Y           Z
 ---------------------------------------------------------------------
      1          6           0       -0.214010   -2.762091    0.000000
      2          6           0        0.860677   -3.647032    0.000000
      3          6           0        2.139833   -3.134626    0.000000
      4          6           0        2.333126   -1.720050    0.000000
      5          6           0        0.356550    2.637058    0.000000
      6          6           0       -0.588909    3.645196    0.000000
      7          6           0       -1.947324    3.280983    0.000000
      8          6           0       -2.358516    1.913927    0.000000
      9          6           0       -1.413700   -0.624723    0.000000
     10          6           0        1.215185    0.560396    0.000000
     11          6           0       -0.068669   -1.363329    0.000000
     12          6           0        1.225403   -0.850178    0.000000
     13          6           0       -1.365685    0.869339    0.000000
     14          6           0        0.000000    1.294098    0.000000
     15          1           0       -1.221426   -3.160706    0.000000
     16          1           0        0.674482   -4.710250    0.000000
     17          1           0        3.002274   -3.796715    0.000000
     18          1           0        3.342141   -1.327063    0.000000
     19          1           0        2.130049    1.159406    0.000000
     20          1           0        1.431571    2.872068    0.000000
     21          1           0       -0.284001    4.690990    0.000000
     22          1           0       -2.700616    4.073043    0.000000
     23          1           0       -3.436418    1.684010    0.000000
     24          1           0       -1.990908   -1.039299    0.859585
     25          1           0       -1.990908   -1.039299   -0.859585
 ---------------------------------------------------------------------

 SCF Done:  E(RM062X) =  -539.726864893     A.U. after   15 cycles

 Excitation energies and oscillator strengths:

 Excited State   1:      Singlet-A'     2.9336 eV  422.63 nm  f=0.0315  <S**2>=0.000
      47 -> 48         0.70340
 This state for optimization and/or second-order correction.
 Total Energy, E(TD-HF/TD-DFT) =  -539.619055738
 Copying the excited state density for this state as the 1-particle RhoCI density.

 The electronic state is 1-A'.
 Alpha  occ. eigenvalues --  -10.77388 -10.74508 -10.73204 -10.72245 -10.72212
 Alpha  occ. eigenvalues --  -10.72081 -10.72066 -10.71787 -10.71784 -10.71261
 Alpha  occ. eigenvalues --  -10.70647 -10.69963 -10.69765 -10.69539  -1.16417
 Alpha  occ. eigenvalues --   -1.12241  -1.06691  -1.05368  -1.01172  -1.00059
 Alpha  occ. eigenvalues --   -0.95433  -0.90635  -0.87029  -0.85184  -0.83575
 Alpha  occ. eigenvalues --   -0.77976  -0.75655  -0.73915  -0.70013  -0.69317
 Alpha  occ. eigenvalues --   -0.67979  -0.67694  -0.67399  -0.64270  -0.63804
 Alpha  occ. eigenvalues --   -0.62560  -0.61551  -0.60016  -0.59463  -0.58750
 Alpha  occ. eigenvalues --   -0.56383  -0.55368  -0.54659  -0.52209  -0.46616
 Alpha  occ. eigenvalues --   -0.45928  -0.44565
 Alpha virt. eigenvalues --   -0.25736  -0.14944  -0.14227  -0.13026  -0.11223
 Alpha virt. eigenvalues --   -0.10154  -0.09248  -0.08016  -0.07976  -0.07519
 Alpha virt. eigenvalues --   -0.07191  -0.07058  -0.05748  -0.05610  -0.05303

 Mulliken charges:
               1
     1  C    0.262708
     2  C   -0.308971
     3  C   -0.480373
     4  C   -0.286122
     5  C    0.127940
     6  C   -0.458481
     7  C   -0.365974
     8  C   -0.239400
     9  C   -0.592244
    10  C   -0.106318
    11  C   -0.285785
    12  C    0.515494
    13  C   -0.460600
    14  C    1.036663
    15  H    0.240826
    16  H    0.255409
    17  H    0.250626
    18  H    0.233413
    19  H    0.172581
    20  H    0.209155
    21  H    0.261224
    22  H    0.254391
    23  H    0.259526
    24  H    0.252157
    25  H    0.252157
 Sum of Mulliken charges =   1.00000

 Dipole moment (field-independent basis, Debye):
    X=              0.1160    Y=              0.3319    Z=             -0.0000  Tot=              0.3516
 Quadrupole moment (field-independent basis, Debye-Ang):
   XX=            -52.2082   YY=            -34.4189   ZZ=            -84.5084
   XY=             -9.5458   XZ=              0.0000   YZ=             -0.0000

 Normal termination of Gaussian 16 at Tue Aug  2 11:56:10 2022.
