 Gaussian 16, Revision C.01,
 Gaussian 16:  ES64L-G16RevC.01  3-Jul-2019

 ---------------------------------------------------------------
 #n M062X/6-311++G(d,p) TD(NStates=1) EmpiricalDispersion=GD3 SP
 ---------------------------------------------------------------

 ------
 SP_-10
 ------
 Symbolic Z-matrix:
 Charge =  1 Multiplicity = 1

                         Standard orientation:
 ---------------------------------------------------------------------
 Center     Atomic      Atomic             Coordinates (Angstroms)
 Number     Number       Type             X           Y           Z
 ---------------------------------------------------------------------
      1          6           0        0.606845    2.493828    0.000000
      2          6           0       -0.129624    3.696871    0.000000
      3          6           0       -1.513690    3.533527    0.000000
      4          6           0       -2.164829    2.192953    0.000000
      5          6           0       -0.575392   -2.726078    0.000000
      6          6           0        0.418167   -3.680986    0.000000
      7          6           0        1.770830   -3.334530    0.000000
      8          6           0        2.113850   -1.990131    0.000000
      9          6           0        1.239633    0.394209    0.000000
     10          6           0       -1.505072   -0.492207    0.000000
     11          6           0        0.000000    1.217982    0.000000
     12          6           0       -1.369079    0.958112    0.000000
     13          6           0        1.079439   -1.036580    0.000000
     14          6           0       -0.314172   -1.356301    0.000000
     15          1           0        1.732062    2.497875    0.000000
     16          1           0        0.367855    4.686411    0.000000
     17          1           0       -2.161560    4.425490    0.000000
     18          1           0       -3.286584    2.179298    0.000000
     19          1           0       -2.485811   -1.031745    0.000000
     20          1           0       -1.612493   -3.036691    0.000000
     21          1           0        0.132002   -4.714432    0.000000
     22          1           0        2.522880   -4.113444    0.000000
     23          1           0        3.148826   -1.669528    0.000000
     24          1           0        1.850693    0.776371    0.859585
     25          1           0        1.850693    0.776371   -0.859585
 ---------------------------------------------------------------------

 SCF Done:  E(RM062X) =  -539.673817625     A.U. after   16 cycles

 Excitation energies and oscillator strengths:

 Excited State   1:      Singlet-A'     2.3959 eV  517.49 nm  f=0.0246  <S**2>=0.000
      47 -> 48         0.70461
 This state for optimization and/or second-order correction.
 Total Energy, E(TD-HF/TD-DFT) =  -539.585770985
 Copying the excited state density for this state as the 1-particle RhoCI density.

 The electronic state is 1-A'.
 Alpha  occ. eigenvalues --  -10.79833 -10.74507 -10.73542 -10.73157 -10.73102
 Alpha  occ. eigenvalues --  -10.73018 -10.71274 -10.71215 -10.71141 -10.71083
 Alpha  occ. eigenvalues --  -10.70689 -10.70343 -10.70081 -10.69084  -1.16448
 Alpha  occ. eigenvalues --   -1.12033  -1.06492  -1.05795  -1.01218  -0.99876
 Alpha  occ. eigenvalues --   -0.95004  -0.90271  -0.87114  -0.85024  -0.82996
 Alpha  occ. eigenvalues --   -0.77720  -0.75714  -0.73491  -0.69736  -0.69144
 Alpha  occ. eigenvalues --   -0.68520  -0.68318  -0.67521  -0.64599  -0.64116
 Alpha  occ. eigenvalues --   -0.61640  -0.60311  -0.59647  -0.58762  -0.58742
 Alpha  occ. eigenvalues --   -0.56363  -0.55354  -0.53762  -0.52147  -0.46608
 Alpha  occ. eigenvalues --   -0.45924  -0.43336
 Alpha virt. eigenvalues --   -0.26502  -0.15439  -0.14610  -0.12793  -0.11402
 Alpha virt. eigenvalues --   -0.10195  -0.09218  -0.08244  -0.08089  -0.07654
 Alpha virt. eigenvalues --   -0.07463  -0.07421  -0.05792  -0.05648  -0.05391

 Mulliken charges:
               1
     1  C    0.373313
     2  C   -0.416496
     3  C   -0.411593
     4  C   -0.161940
     5  C   -0.000653
     6  C   -0.272316
     7  C   -0.303398
     8  C   -0.337651
     9  C   -0.569509
    10  C   -0.272872
    11  C    0.269360
    12  C    0.140175
    13  C   -0.598872
    14  C    0.842636
    15  H    0.255026
    16  H    0.272699
    17  H    0.244868
    18  H    0.273698
    19  H    0.251132
    20  H    0.185801
    21  H    0.249488
    22  H    0.261148
    23  H    0.224103
    24  H    0.250926
    25  H    0.250926
 Sum of Mulliken charges =   1.00000

 Dipole moment (field-independent basis, Debye):
    X=             -0.0302    Y=             -0.0133    Z=              0.0000  Tot=              0.0330
 Quadrupole moment (field-independent basis, Debye-Ang):
   XX=            -53.8118   YY=            -33.7743   ZZ=            -84.8234
   XY=             -6.5809   XZ=              0.0000   YZ=             -0.0000

 Normal termination of Gaussian 16 at Tue Aug  2 11:52:54 2022.
