 Gaussian 16, Revision C.01,
 Gaussian 16:  ES64L-G16RevC.01  3-Jul-2019

 ---------------------------------------------------------------
 #n M062X/6-311++G(d,p) TD(NStates=1) EmpiricalDispersion=GD3 SP
 ---------------------------------------------------------------

 -----
 SP_-2
 -----
 Symbolic Z-matrix:
 Charge =  1 Multiplicity = 1

                         Standard orientation:
 ---------------------------------------------------------------------
 Center     Atomic      Atomic             Coordinates (Angstroms)
 Number     Number       Type             X           Y           Z
 ---------------------------------------------------------------------
      1          6           0        2.532337   -1.351383    0.000000
      2          6           0        3.721922   -0.615716    0.000000
      3          6           0        3.676846    0.768570    0.000000
      4          6           0        2.427949    1.413648    0.000000
      5          6           0       -2.354493    1.421088    0.000000
      6          6           0       -3.630356    0.858946    0.000000
      7          6           0       -3.752604   -0.527820    0.000000
      8          6           0       -2.609160   -1.348682    0.000000
      9          6           0       -0.006184   -1.545271    0.000000
     10          6           0        0.000000    1.337349    0.000000
     11          6           0        1.261361   -0.726447    0.000000
     12          6           0        1.239530    0.677678    0.000000
     13          6           0       -1.299406   -0.787189    0.000000
     14          6           0       -1.212001    0.623944    0.000000
     15          1           0        2.585912   -2.435130    0.000000
     16          1           0        4.668498   -1.134035    0.000000
     17          1           0        4.589610    1.354822    0.000000
     18          1           0        2.380178    2.496648    0.000000
     19          1           0       -0.040233    2.412836    0.000000
     20          1           0       -2.231058    2.502533    0.000000
     21          1           0       -4.507994    1.497463    0.000000
     22          1           0       -4.736003   -0.980606    0.000000
     23          1           0       -2.738410   -2.430769    0.000000
     24          1           0        0.027525   -2.238024    0.859585
     25          1           0        0.027525   -2.238024   -0.859585
 ---------------------------------------------------------------------

 SCF Done:  E(RM062X) =  -539.757886890     A.U. after   15 cycles

 Excitation energies and oscillator strengths:

 Excited State   1:      Singlet-A'     2.9662 eV  417.99 nm  f=0.0313  <S**2>=0.000
      47 -> 48         0.70344
 This state for optimization and/or second-order correction.
 Total Energy, E(TD-HF/TD-DFT) =  -539.648881395
 Copying the excited state density for this state as the 1-particle RhoCI density.

 The electronic state is 1-A'.
 Alpha  occ. eigenvalues --  -10.76876 -10.73863 -10.73538 -10.72010 -10.71991
 Alpha  occ. eigenvalues --  -10.71578 -10.71432 -10.71388 -10.71301 -10.71029
 Alpha  occ. eigenvalues --  -10.70728 -10.70167 -10.69741 -10.69690  -1.16422
 Alpha  occ. eigenvalues --   -1.12346  -1.06863  -1.05461  -1.01203  -1.00162
 Alpha  occ. eigenvalues --   -0.95661  -0.90951  -0.86510  -0.85819  -0.83740
 Alpha  occ. eigenvalues --   -0.78245  -0.75808  -0.74260  -0.69796  -0.69202
 Alpha  occ. eigenvalues --   -0.68242  -0.68010  -0.67722  -0.64402  -0.63920
 Alpha  occ. eigenvalues --   -0.63253  -0.61979  -0.60240  -0.59574  -0.58992
 Alpha  occ. eigenvalues --   -0.56810  -0.55192  -0.54868  -0.52333  -0.46624
 Alpha  occ. eigenvalues --   -0.45951  -0.44732
 Alpha virt. eigenvalues --   -0.25776  -0.14745  -0.14098  -0.12906  -0.11163
 Alpha virt. eigenvalues --   -0.10097  -0.09242  -0.07980  -0.07949  -0.07478
 Alpha virt. eigenvalues --   -0.07139  -0.07018  -0.05683  -0.05599  -0.05303

 Mulliken charges:
               1
     1  C    0.088593
     2  C   -0.361204
     3  C   -0.474886
     4  C   -0.015927
     5  C    0.085725
     6  C   -0.456960
     7  C   -0.380899
     8  C   -0.041603
     9  C   -0.437516
    10  C   -0.032947
    11  C   -0.478717
    12  C    0.638103
    13  C   -0.498183
    14  C    0.756827
    15  H    0.240928
    16  H    0.252847
    17  H    0.251222
    18  H    0.231216
    19  H    0.151861
    20  H    0.226853
    21  H    0.254043
    22  H    0.252184
    23  H    0.245934
    24  H    0.251253
    25  H    0.251253
 Sum of Mulliken charges =   1.00000

 Dipole moment (field-independent basis, Debye):
    X=             -0.0613    Y=              0.2385    Z=             -0.0000  Tot=              0.2463
 Quadrupole moment (field-independent basis, Debye-Ang):
   XX=            -30.4916   YY=            -56.3574   ZZ=            -84.2615
   XY=             -0.1396   XZ=             -0.0000   YZ=             -0.0000

 Normal termination of Gaussian 16 at Tue Aug  2 12:32:42 2022.
