 Gaussian 16, Revision C.01,
 Gaussian 16:  ES64L-G16RevC.01  3-Jul-2019

 ---------------------------------------------------------------
 #n M062X/6-311++G(d,p) TD(NStates=1) EmpiricalDispersion=GD3 SP
 ---------------------------------------------------------------

 -----
 SP_-8
 -----
 Symbolic Z-matrix:
 Charge =  1 Multiplicity = 1

                         Standard orientation:
 ---------------------------------------------------------------------
 Center     Atomic      Atomic             Coordinates (Angstroms)
 Number     Number       Type             X           Y           Z
 ---------------------------------------------------------------------
      1          6           0       -0.250938   -2.780718    0.000000
      2          6           0        0.830377   -3.660769    0.000000
      3          6           0        2.110428   -3.151007    0.000000
      4          6           0        2.296087   -1.738190    0.000000
      5          6           0        0.415911    2.609153    0.000000
      6          6           0       -0.488540    3.658213    0.000000
      7          6           0       -1.861402    3.338943    0.000000
      8          6           0       -2.330167    1.981451    0.000000
      9          6           0       -1.453180   -0.610491    0.000000
     10          6           0        1.196597    0.527147    0.000000
     11          6           0       -0.115721   -1.377273    0.000000
     12          6           0        1.183683   -0.878188    0.000000
     13          6           0       -1.376793    0.889518    0.000000
     14          6           0        0.000000    1.280348    0.000000
     15          1           0       -1.253558   -3.190892    0.000000
     16          1           0        0.645507   -4.723121    0.000000
     17          1           0        2.973862   -3.812567    0.000000
     18          1           0        3.300941   -1.335532    0.000000
     19          1           0        2.120229    1.108866    0.000000
     20          1           0        1.506051    2.796903    0.000000
     21          1           0       -0.144451    4.695698    0.000000
     22          1           0       -2.587283    4.160359    0.000000
     23          1           0       -3.423834    1.800703    0.000000
     24          1           0       -2.037752   -1.014618    0.859585
     25          1           0       -2.037752   -1.014618   -0.859585
 ---------------------------------------------------------------------

 SCF Done:  E(RM062X) =  -539.722584307     A.U. after   15 cycles

 Excitation energies and oscillator strengths:

 Excited State   1:      Singlet-A'     2.9809 eV  415.93 nm  f=0.0320  <S**2>=0.000
      47 -> 48         0.70311
 This state for optimization and/or second-order correction.
 Total Energy, E(TD-HF/TD-DFT) =  -539.613039538
 Copying the excited state density for this state as the 1-particle RhoCI density.

 The electronic state is 1-A'.
 Alpha  occ. eigenvalues --  -10.77101 -10.74751 -10.73300 -10.72277 -10.72261
 Alpha  occ. eigenvalues --  -10.72173 -10.72122 -10.72040 -10.71710 -10.71439
 Alpha  occ. eigenvalues --  -10.70642 -10.69927 -10.69924 -10.69622  -1.16413
 Alpha  occ. eigenvalues --   -1.12161  -1.06622  -1.05272  -1.01098  -1.00021
 Alpha  occ. eigenvalues --   -0.95358  -0.90566  -0.87008  -0.85202  -0.83510
 Alpha  occ. eigenvalues --   -0.77889  -0.75567  -0.73799  -0.70130  -0.69267
 Alpha  occ. eigenvalues --   -0.67855  -0.67627  -0.67287  -0.64138  -0.63700
 Alpha  occ. eigenvalues --   -0.62483  -0.61565  -0.60073  -0.59396  -0.58680
 Alpha  occ. eigenvalues --   -0.56374  -0.55363  -0.54588  -0.52155  -0.46586
 Alpha  occ. eigenvalues --   -0.45871  -0.44624
 Alpha virt. eigenvalues --   -0.25623  -0.15016  -0.14240  -0.13094  -0.11226
 Alpha virt. eigenvalues --   -0.10160  -0.09251  -0.08020  -0.07960  -0.07517
 Alpha virt. eigenvalues --   -0.07184  -0.07009  -0.05763  -0.05622  -0.05298

 Mulliken charges:
               1
     1  C    0.249393
     2  C   -0.306541
     3  C   -0.491164
     4  C   -0.237107
     5  C    0.138318
     6  C   -0.477730
     7  C   -0.353187
     8  C   -0.277893
     9  C   -0.600263
    10  C   -0.115117
    11  C   -0.258774
    12  C    0.489162
    13  C   -0.417755
    14  C    1.021849
    15  H    0.241071
    16  H    0.253818
    17  H    0.251204
    18  H    0.234922
    19  H    0.154136
    20  H    0.216522
    21  H    0.263324
    22  H    0.254257
    23  H    0.264113
    24  H    0.251722
    25  H    0.251722
 Sum of Mulliken charges =   1.00000

 Dipole moment (field-independent basis, Debye):
    X=              0.1214    Y=              0.3769    Z=              0.0000  Tot=              0.3959
 Quadrupole moment (field-independent basis, Debye-Ang):
   XX=            -52.5049   YY=            -33.8947   ZZ=            -84.5842
   XY=             -9.2981   XZ=              0.0000   YZ=             -0.0000

 Normal termination of Gaussian 16 at Tue Aug  2 11:55:04 2022.
