 Gaussian 16, Revision C.01,
 Gaussian 16:  ES64L-G16RevC.01  3-Jul-2019

 ---------------------------------------------------------------
 #n M062X/6-311++G(d,p) TD(NStates=1) EmpiricalDispersion=GD3 SP
 ---------------------------------------------------------------

 -----
 SP_-4
 -----
 Symbolic Z-matrix:
 Charge =  1 Multiplicity = 1

                         Standard orientation:
 ---------------------------------------------------------------------
 Center     Atomic      Atomic             Coordinates (Angstroms)
 Number     Number       Type             X           Y           Z
 ---------------------------------------------------------------------
      1          6           0        0.423816    2.633583    0.000000
      2          6           0       -0.486055    3.689787    0.000000
      3          6           0       -1.828787    3.332948    0.000000
      4          6           0       -2.269533    1.950926    0.000000
      5          6           0       -0.363734   -2.851563    0.000000
      6          6           0        0.783860   -3.662997    0.000000
      7          6           0        2.068338   -3.130697    0.000000
      8          6           0        2.187630   -1.751078    0.000000
      9          6           0        1.209507    0.477378    0.000000
     10          6           0       -1.470116   -0.585807    0.000000
     11          6           0        0.000000    1.292362    0.000000
     12          6           0       -1.331509    0.855330    0.000000
     13          6           0        1.033894   -0.950655    0.000000
     14          6           0       -0.294478   -1.440885    0.000000
     15          1           0        1.514619    2.812919    0.000000
     16          1           0       -0.157784    4.732084    0.000000
     17          1           0       -2.588644    4.113007    0.000000
     18          1           0       -3.356061    1.762315    0.000000
     19          1           0       -2.454182   -1.067538    0.000000
     20          1           0       -1.340375   -3.328747    0.000000
     21          1           0        0.650939   -4.731658    0.000000
     22          1           0        2.936950   -3.777151    0.000000
     23          1           0        3.161294   -1.264123    0.000000
     24          1           0        1.828128    0.798548    0.859585
     25          1           0        1.828128    0.798548   -0.859585
 ---------------------------------------------------------------------

 SCF Done:  E(RM062X) =  -539.723324598     A.U. after   16 cycles

 Excitation energies and oscillator strengths:

 Excited State   1:      Singlet-A'     2.4982 eV  496.29 nm  f=0.0237  <S**2>=0.000
      47 -> 48         0.70507
 This state for optimization and/or second-order correction.
 Total Energy, E(TD-HF/TD-DFT) =  -539.631516144
 Copying the excited state density for this state as the 1-particle RhoCI density.

 The electronic state is 1-A'.
 Alpha  occ. eigenvalues --  -10.79114 -10.73799 -10.73188 -10.72863 -10.72834
 Alpha  occ. eigenvalues --  -10.72550 -10.71386 -10.71068 -10.71030 -10.70350
 Alpha  occ. eigenvalues --  -10.70344 -10.69952 -10.69869 -10.69506  -1.16465
 Alpha  occ. eigenvalues --   -1.12108  -1.06661  -1.06012  -1.01147  -0.99915
 Alpha  occ. eigenvalues --   -0.95460  -0.90702  -0.86568  -0.85618  -0.83353
 Alpha  occ. eigenvalues --   -0.78062  -0.75907  -0.73956  -0.69409  -0.69117
 Alpha  occ. eigenvalues --   -0.68822  -0.68728  -0.67963  -0.64699  -0.64397
 Alpha  occ. eigenvalues --   -0.62153  -0.61083  -0.59556  -0.59207  -0.58940
 Alpha  occ. eigenvalues --   -0.56914  -0.55349  -0.54202  -0.52350  -0.46457
 Alpha  occ. eigenvalues --   -0.45990  -0.43710
 Alpha virt. eigenvalues --   -0.26532  -0.15023  -0.14424  -0.12840  -0.11309
 Alpha virt. eigenvalues --   -0.10121  -0.09213  -0.08094  -0.08056  -0.07506
 Alpha virt. eigenvalues --   -0.07412  -0.07411  -0.05696  -0.05615  -0.05406

 Mulliken charges:
               1
     1  C    0.153245
     2  C   -0.373402
     3  C   -0.424607
     4  C    0.073926
     5  C    0.165862
     6  C   -0.360238
     7  C   -0.335952
     8  C   -0.175333
     9  C   -0.417759
    10  C   -0.090012
    11  C   -0.221080
    12  C    0.249413
    13  C   -0.485008
    14  C    0.547513
    15  H    0.246039
    16  H    0.267334
    17  H    0.241695
    18  H    0.254209
    19  H    0.228932
    20  H    0.220032
    21  H    0.244149
    22  H    0.261706
    23  H    0.232263
    24  H    0.248536
    25  H    0.248536
 Sum of Mulliken charges =   1.00000

 Dipole moment (field-independent basis, Debye):
    X=             -0.0640    Y=             -0.0197    Z=             -0.0000  Tot=              0.0670
 Quadrupole moment (field-independent basis, Debye-Ang):
   XX=            -52.7031   YY=            -35.1082   ZZ=            -84.4846
   XY=             -8.0086   XZ=              0.0000   YZ=              0.0000

 Normal termination of Gaussian 16 at Tue Aug  2 12:29:24 2022.
