 Gaussian 16, Revision C.01,
 Gaussian 16:  ES64L-G16RevC.01  3-Jul-2019

 ---------------------------------------------------------------
 #n M062X/6-311++G(d,p) TD(NStates=1) EmpiricalDispersion=GD3 SP
 ---------------------------------------------------------------

 -----
 SP_-4
 -----
 Symbolic Z-matrix:
 Charge =  1 Multiplicity = 1

                         Standard orientation:
 ---------------------------------------------------------------------
 Center     Atomic      Atomic             Coordinates (Angstroms)
 Number     Number       Type             X           Y           Z
 ---------------------------------------------------------------------
      1          6           0        0.306627    2.691918    0.000000
      2          6           0       -0.683474    3.667132    0.000000
      3          6           0       -1.996077    3.223774    0.000000
      4          6           0       -2.322875    1.824871    0.000000
      5          6           0       -0.290283   -2.820753    0.000000
      6          6           0        0.840089   -3.641320    0.000000
      7          6           0        2.122565   -3.105721    0.000000
      8          6           0        2.260508   -1.725358    0.000000
      9          6           0        1.248844    0.542445    0.000000
     10          6           0       -1.392633   -0.612258    0.000000
     11          6           0        0.000000    1.323314    0.000000
     12          6           0       -1.307937    0.822318    0.000000
     13          6           0        1.119722   -0.904945    0.000000
     14          6           0       -0.198762   -1.422130    0.000000
     15          1           0        1.365800    2.967650    0.000000
     16          1           0       -0.432177    4.724576    0.000000
     17          1           0       -2.807737    3.944846    0.000000
     18          1           0       -3.379007    1.543703    0.000000
     19          1           0       -2.355864   -1.125992    0.000000
     20          1           0       -1.273205   -3.275935    0.000000
     21          1           0        0.703057   -4.709445    0.000000
     22          1           0        2.987467   -3.754319    0.000000
     23          1           0        3.241669   -1.264200    0.000000
     24          1           0        1.856055    0.884699    0.859585
     25          1           0        1.856055    0.884699   -0.859585
 ---------------------------------------------------------------------

 SCF Done:  E(RM062X) =  -539.739876364     A.U. after   15 cycles

 Excitation energies and oscillator strengths:

 Excited State   1:      Singlet-A'     2.6318 eV  471.10 nm  f=0.0260  <S**2>=0.000
      47 -> 48         0.70475
 This state for optimization and/or second-order correction.
 Total Energy, E(TD-HF/TD-DFT) =  -539.643159978
 Copying the excited state density for this state as the 1-particle RhoCI density.

 The electronic state is 1-A'.
 Alpha  occ. eigenvalues --  -10.78604 -10.73305 -10.73057 -10.72893 -10.72812
 Alpha  occ. eigenvalues --  -10.72150 -10.71183 -10.71070 -10.70932 -10.70623
 Alpha  occ. eigenvalues --  -10.70102 -10.70031 -10.69693 -10.69433  -1.16447
 Alpha  occ. eigenvalues --   -1.12313  -1.06806  -1.05914  -1.01262  -1.00056
 Alpha  occ. eigenvalues --   -0.95628  -0.90869  -0.86628  -0.85614  -0.83589
 Alpha  occ. eigenvalues --   -0.78241  -0.75995  -0.74193  -0.69382  -0.69261
 Alpha  occ. eigenvalues --   -0.68742  -0.68420  -0.68042  -0.64785  -0.64398
 Alpha  occ. eigenvalues --   -0.62520  -0.61398  -0.59727  -0.59456  -0.59025
 Alpha  occ. eigenvalues --   -0.56874  -0.55313  -0.54501  -0.52404  -0.46553
 Alpha  occ. eigenvalues --   -0.46050  -0.44051
 Alpha virt. eigenvalues --   -0.26364  -0.14843  -0.14271  -0.12782  -0.11250
 Alpha virt. eigenvalues --   -0.10108  -0.09222  -0.08035  -0.08020  -0.07492
 Alpha virt. eigenvalues --   -0.07330  -0.07312  -0.05669  -0.05593  -0.05376

 Mulliken charges:
               1
     1  C    0.137503
     2  C   -0.382345
     3  C   -0.454111
     4  C    0.126164
     5  C    0.180785
     6  C   -0.379145
     7  C   -0.352971
     8  C   -0.223091
     9  C   -0.365688
    10  C   -0.091527
    11  C   -0.162463
    12  C    0.152556
    13  C   -0.392217
    14  C    0.543321
    15  H    0.241457
    16  H    0.263276
    17  H    0.243727
    18  H    0.245980
    19  H    0.218383
    20  H    0.214866
    21  H    0.247199
    22  H    0.259613
    23  H    0.229386
    24  H    0.249671
    25  H    0.249671
 Sum of Mulliken charges =   1.00000

 Dipole moment (field-independent basis, Debye):
    X=             -0.1020    Y=             -0.0667    Z=              0.0000  Tot=              0.1219
 Quadrupole moment (field-independent basis, Debye-Ang):
   XX=            -52.2556   YY=            -35.4116   ZZ=            -84.3085
   XY=             -8.8245   XZ=              0.0000   YZ=              0.0000

 Normal termination of Gaussian 16 at Tue Aug  2 12:27:09 2022.
