 Gaussian 16, Revision C.01,
 Gaussian 16:  ES64L-G16RevC.01  3-Jul-2019

 ---------------------------------------------------------------
 #n M062X/6-311++G(d,p) TD(NStates=1) EmpiricalDispersion=GD3 SP
 ---------------------------------------------------------------

 ------
 SP_-10
 ------
 Symbolic Z-matrix:
 Charge =  1 Multiplicity = 1

                         Standard orientation:
 ---------------------------------------------------------------------
 Center     Atomic      Atomic             Coordinates (Angstroms)
 Number     Number       Type             X           Y           Z
 ---------------------------------------------------------------------
      1          6           0        0.368852    2.625352    0.000000
      2          6           0       -0.549302    3.675526    0.000000
      3          6           0       -1.886725    3.325914    0.000000
      4          6           0       -2.303172    1.929083    0.000000
      5          6           0       -0.414444   -2.676228    0.000000
      6          6           0        0.554921   -3.647693    0.000000
      7          6           0        1.908101   -3.282998    0.000000
      8          6           0        2.280937   -1.927655    0.000000
      9          6           0        1.321422    0.528742    0.000000
     10          6           0       -1.348794   -0.561712    0.000000
     11          6           0        0.000000    1.273879    0.000000
     12          6           0       -1.331810    0.874182    0.000000
     13          6           0        1.262640   -0.938097    0.000000
     14          6           0       -0.116788   -1.324254    0.000000
     15          1           0        1.446318    2.834172    0.000000
     16          1           0       -0.209090    4.712337    0.000000
     17          1           0       -2.653612    4.104165    0.000000
     18          1           0       -3.379229    1.718449    0.000000
     19          1           0       -2.278641   -1.170760    0.000000
     20          1           0       -1.466718   -2.951407    0.000000
     21          1           0        0.265950   -4.687104    0.000000
     22          1           0        2.662906   -4.065534    0.000000
     23          1           0        3.333106   -1.650180    0.000000
     24          1           0        1.901990    0.955806    0.859585
     25          1           0        1.901990    0.955806   -0.859585
 ---------------------------------------------------------------------

 SCF Done:  E(RM062X) =  -539.706446371     A.U. after   15 cycles

 Excitation energies and oscillator strengths:

 Excited State   1:      Singlet-A'     2.6814 eV  462.39 nm  f=0.0289  <S**2>=0.000
      47 -> 48         0.70419
 This state for optimization and/or second-order correction.
 Total Energy, E(TD-HF/TD-DFT) =  -539.607906851
 Copying the excited state density for this state as the 1-particle RhoCI density.

 The electronic state is 1-A'.
 Alpha  occ. eigenvalues --  -10.78797 -10.73828 -10.73379 -10.72998 -10.72584
 Alpha  occ. eigenvalues --  -10.72575 -10.71648 -10.71644 -10.71017 -10.70821
 Alpha  occ. eigenvalues --  -10.70745 -10.70484 -10.69492 -10.69295  -1.16415
 Alpha  occ. eigenvalues --   -1.12267  -1.06667  -1.05640  -1.01312  -1.00023
 Alpha  occ. eigenvalues --   -0.95353  -0.90523  -0.87226  -0.84921  -0.83451
 Alpha  occ. eigenvalues --   -0.77924  -0.75762  -0.73872  -0.69741  -0.69320
 Alpha  occ. eigenvalues --   -0.68378  -0.67712  -0.67635  -0.64570  -0.64014
 Alpha  occ. eigenvalues --   -0.62161  -0.60974  -0.59779  -0.59278  -0.58784
 Alpha  occ. eigenvalues --   -0.56230  -0.55412  -0.54450  -0.52236  -0.46690
 Alpha  occ. eigenvalues --   -0.45996  -0.44035
 Alpha virt. eigenvalues --   -0.26141  -0.15037  -0.14378  -0.12871  -0.11287
 Alpha virt. eigenvalues --   -0.10181  -0.09233  -0.08090  -0.08037  -0.07573
 Alpha virt. eigenvalues --   -0.07294  -0.07284  -0.05762  -0.05603  -0.05338

 Mulliken charges:
               1
     1  C    0.382986
     2  C   -0.336597
     3  C   -0.420501
     4  C   -0.090268
     5  C    0.005483
     6  C   -0.317143
     7  C   -0.336747
     8  C   -0.200895
     9  C   -0.745878
    10  C   -0.368278
    11  C    0.240580
    12  C    0.118784
    13  C   -0.605202
    14  C    0.982890
    15  H    0.245057
    16  H    0.263573
    17  H    0.246825
    18  H    0.258125
    19  H    0.228204
    20  H    0.185154
    21  H    0.254860
    22  H    0.257918
    23  H    0.246041
    24  H    0.252514
    25  H    0.252514
 Sum of Mulliken charges =   1.00000

 Dipole moment (field-independent basis, Debye):
    X=             -0.0888    Y=             -0.1852    Z=             -0.0000  Tot=              0.2053
 Quadrupole moment (field-independent basis, Debye-Ang):
   XX=            -52.9181   YY=            -34.2668   ZZ=            -84.5731
   XY=             -8.4892   XZ=             -0.0000   YZ=             -0.0000

 Normal termination of Gaussian 16 at Tue Aug  2 11:48:21 2022.
