 Gaussian 16, Revision C.01,
 Gaussian 16:  ES64L-G16RevC.01  3-Jul-2019

 ---------------------------------------------------------------
 #n M062X/6-311++G(d,p) TD(NStates=1) EmpiricalDispersion=GD3 SP
 ---------------------------------------------------------------

 ----
 SP_8
 ----
 Symbolic Z-matrix:
 Charge =  1 Multiplicity = 1

                         Standard orientation:
 ---------------------------------------------------------------------
 Center     Atomic      Atomic             Coordinates (Angstroms)
 Number     Number       Type             X           Y           Z
 ---------------------------------------------------------------------
      1          6           0       -2.302168   -1.849065    0.000000
      2          6           0       -2.001823   -3.216991    0.000000
      3          6           0       -0.670518   -3.641597    0.000000
      4          6           0        0.349688   -2.715297    0.000000
      5          6           0        2.329000    1.850537    0.000000
      6          6           0        1.981357    3.254431    0.000000
      7          6           0        0.661681    3.665016    0.000000
      8          6           0       -0.308354    2.666821    0.000000
      9          6           0       -1.309533    0.557038    0.000000
     10          6           0        1.337595   -0.586750    0.000000
     11          6           0       -1.244071   -0.907865    0.000000
     12          6           0        0.113260   -1.348321    0.000000
     13          6           0        0.000000    1.300275    0.000000
     14          6           0        1.316793    0.844605    0.000000
     15          1           0       -3.336049   -1.517198    0.000000
     16          1           0       -2.794634   -3.956896    0.000000
     17          1           0       -0.430966   -4.692918    0.000000
     18          1           0        1.383736   -3.044872    0.000000
     19          1           0        2.269161   -1.174322    0.000000
     20          1           0        3.388570    1.584840    0.000000
     21          1           0        2.781300    3.993808    0.000000
     22          1           0        0.377151    4.714756    0.000000
     23          1           0       -1.369381    2.930742    0.000000
     24          1           0       -1.893165    0.962522    0.859585
     25          1           0       -1.893165    0.962522   -0.859585
 ---------------------------------------------------------------------

 SCF Done:  E(RM062X) =  -539.725620295     A.U. after   15 cycles

 Excitation energies and oscillator strengths:

 Excited State   1:      Singlet-A'     2.7116 eV  457.24 nm  f=0.0287  <S**2>=0.000
      47 -> 48         0.70422
 This state for optimization and/or second-order correction.
 Total Energy, E(TD-HF/TD-DFT) =  -539.625971151
 Copying the excited state density for this state as the 1-particle RhoCI density.

 The electronic state is 1-A'.
 Alpha  occ. eigenvalues --  -10.78495 -10.73640 -10.73184 -10.72971 -10.72515
 Alpha  occ. eigenvalues --  -10.72322 -10.71469 -10.71348 -10.70843 -10.70814
 Alpha  occ. eigenvalues --  -10.70728 -10.70283 -10.69518 -10.69322  -1.16425
 Alpha  occ. eigenvalues --   -1.12333  -1.06757  -1.05703  -1.01314  -1.00072
 Alpha  occ. eigenvalues --   -0.95504  -0.90706  -0.87044  -0.85154  -0.83574
 Alpha  occ. eigenvalues --   -0.78099  -0.75856  -0.74056  -0.69621  -0.69363
 Alpha  occ. eigenvalues --   -0.68463  -0.67889  -0.67782  -0.64645  -0.64151
 Alpha  occ. eigenvalues --   -0.62439  -0.61249  -0.59825  -0.59416  -0.58902
 Alpha  occ. eigenvalues --   -0.56486  -0.55380  -0.54563  -0.52313  -0.46663
 Alpha  occ. eigenvalues --   -0.46024  -0.44160
 Alpha virt. eigenvalues --   -0.26158  -0.14913  -0.14290  -0.12832  -0.11253
 Alpha virt. eigenvalues --   -0.10146  -0.09231  -0.08049  -0.08020  -0.07530
 Alpha virt. eigenvalues --   -0.07278  -0.07257  -0.05718  -0.05593  -0.05343

 Mulliken charges:
               1
     1  C   -0.151903
     2  C   -0.342661
     3  C   -0.311613
     4  C    0.068803
     5  C   -0.000396
     6  C   -0.424522
     7  C   -0.331129
     8  C    0.329030
     9  C   -0.675979
    10  C   -0.324937
    11  C   -0.595204
    12  C    0.886409
    13  C    0.048709
    14  C    0.147579
    15  H    0.243276
    16  H    0.256972
    17  H    0.253224
    18  H    0.195667
    19  H    0.218373
    20  H    0.253330
    21  H    0.246119
    22  H    0.262251
    23  H    0.243822
    24  H    0.252390
    25  H    0.252390
 Sum of Mulliken charges =   1.00000

 Dipole moment (field-independent basis, Debye):
    X=              0.1033    Y=             -0.1603    Z=              0.0000  Tot=              0.1907
 Quadrupole moment (field-independent basis, Debye-Ang):
   XX=            -52.5176   YY=            -34.7829   ZZ=            -84.4252
   XY=              8.8888   XZ=              0.0000   YZ=              0.0000

 Normal termination of Gaussian 16 at Tue Aug  2 13:32:17 2022.
