 Gaussian 16, Revision C.01,
 Gaussian 16:  ES64L-G16RevC.01  3-Jul-2019

 ---------------------------------------------------------------
 #n M062X/6-311++G(d,p) TD(NStates=1) EmpiricalDispersion=GD3 SP
 ---------------------------------------------------------------

 -----
 SP_-6
 -----
 Symbolic Z-matrix:
 Charge =  1 Multiplicity = 1

                         Standard orientation:
 ---------------------------------------------------------------------
 Center     Atomic      Atomic             Coordinates (Angstroms)
 Number     Number       Type             X           Y           Z
 ---------------------------------------------------------------------
      1          6           0        0.248838    2.706644    0.000000
      2          6           0       -0.769882    3.651958    0.000000
      3          6           0       -2.070011    3.182546    0.000000
      4          6           0       -2.350338    1.774594    0.000000
      5          6           0       -0.286131   -2.752490    0.000000
      6          6           0        0.782199   -3.632769    0.000000
      7          6           0        2.089913   -3.150619    0.000000
      8          6           0        2.318897   -1.773292    0.000000
      9          6           0        1.297719    0.583663    0.000000
     10          6           0       -1.326697   -0.610148    0.000000
     11          6           0        0.000000    1.327587    0.000000
     12          6           0       -1.300282    0.817902    0.000000
     13          6           0        1.223858   -0.880665    0.000000
     14          6           0       -0.109995   -1.373034    0.000000
     15          1           0        1.291589    3.023768    0.000000
     16          1           0       -0.540302    4.712117    0.000000
     17          1           0       -2.900691    3.882754    0.000000
     18          1           0       -3.391586    1.455734    0.000000
     19          1           0       -2.262432   -1.175794    0.000000
     20          1           0       -1.300206   -3.134544    0.000000
     21          1           0        0.591321   -4.693872    0.000000
     22          1           0        2.918199   -3.847332    0.000000
     23          1           0        3.332744   -1.388951    0.000000
     24          1           0        1.886419    0.967427    0.859585
     25          1           0        1.886419    0.967427   -0.859585
 ---------------------------------------------------------------------

 SCF Done:  E(RM062X) =  -539.739959484     A.U. after   15 cycles

 Excitation energies and oscillator strengths:

 Excited State   1:      Singlet-A'     2.7358 eV  453.19 nm  f=0.0284  <S**2>=0.000
      47 -> 48         0.70429
 This state for optimization and/or second-order correction.
 Total Energy, E(TD-HF/TD-DFT) =  -539.639420697
 Copying the excited state density for this state as the 1-particle RhoCI density.

 The electronic state is 1-A'.
 Alpha  occ. eigenvalues --  -10.78253 -10.73475 -10.73028 -10.72949 -10.72489
 Alpha  occ. eigenvalues --  -10.72076 -10.71313 -10.71112 -10.70959 -10.70825
 Alpha  occ. eigenvalues --  -10.70471 -10.70096 -10.69568 -10.69371  -1.16433
 Alpha  occ. eigenvalues --   -1.12383  -1.06831  -1.05749  -1.01313  -1.00112
 Alpha  occ. eigenvalues --   -0.95622  -0.90851  -0.86855  -0.85388  -0.83668
 Alpha  occ. eigenvalues --   -0.78231  -0.75938  -0.74205  -0.69520  -0.69381
 Alpha  occ. eigenvalues --   -0.68525  -0.68034  -0.67928  -0.64708  -0.64248
 Alpha  occ. eigenvalues --   -0.62657  -0.61474  -0.59860  -0.59525  -0.58989
 Alpha  occ. eigenvalues --   -0.56684  -0.55329  -0.54649  -0.52372  -0.46638
 Alpha  occ. eigenvalues --   -0.46044  -0.44258
 Alpha virt. eigenvalues --   -0.26170  -0.14814  -0.14219  -0.12801  -0.11228
 Alpha virt. eigenvalues --   -0.10120  -0.09230  -0.08018  -0.08008  -0.07513
 Alpha virt. eigenvalues --   -0.07264  -0.07231  -0.05686  -0.05587  -0.05345

 Mulliken charges:
               1
     1  C    0.271687
     2  C   -0.384890
     3  C   -0.476492
     4  C   -0.074362
     5  C    0.148388
     6  C   -0.380005
     7  C   -0.407849
     8  C   -0.207668
     9  C   -0.327817
    10  C    0.045272
    11  C   -0.357914
    12  C    0.152160
    13  C   -0.487137
    14  C    0.841070
    15  H    0.240080
    16  H    0.261100
    17  H    0.247627
    18  H    0.236956
    19  H    0.209551
    20  H    0.205166
    21  H    0.251610
    22  H    0.257830
    23  H    0.232512
    24  H    0.251563
    25  H    0.251563
 Sum of Mulliken charges =   1.00000

 Dipole moment (field-independent basis, Debye):
    X=             -0.1161    Y=             -0.1375    Z=             -0.0000  Tot=              0.1800
 Quadrupole moment (field-independent basis, Debye-Ang):
   XX=            -52.1193   YY=            -35.2747   ZZ=            -84.3041
   XY=             -9.2499   XZ=             -0.0000   YZ=             -0.0000

 Normal termination of Gaussian 16 at Tue Aug  2 12:12:47 2022.
