 Gaussian 16, Revision C.01,
 Gaussian 16:  ES64L-G16RevC.01  3-Jul-2019

 ---------------------------------------------------------------
 #n M062X/6-311++G(d,p) TD(NStates=1) EmpiricalDispersion=GD3 SP
 ---------------------------------------------------------------

 ----
 SP_4
 ----
 Symbolic Z-matrix:
 Charge =  1 Multiplicity = 1

                         Standard orientation:
 ---------------------------------------------------------------------
 Center     Atomic      Atomic             Coordinates (Angstroms)
 Number     Number       Type             X           Y           Z
 ---------------------------------------------------------------------
      1          6           0        2.405524    1.706210    0.000000
      2          6           0        2.187732    3.096351    0.000000
      3          6           0        0.891990    3.611681    0.000000
      4          6           0       -0.183652    2.733265    0.000000
      5          6           0       -2.393093   -1.562718    0.000000
      6          6           0       -2.318922   -2.975266    0.000000
      7          6           0       -1.085097   -3.597514    0.000000
      8          6           0        0.066737   -2.814730    0.000000
      9          6           0        1.350135   -0.686653    0.000000
     10          6           0       -1.214872    0.629204    0.000000
     11          6           0        1.306177    0.801713    0.000000
     12          6           0        0.000000    1.354651    0.000000
     13          6           0        0.024146   -1.406790    0.000000
     14          6           0       -1.228100   -0.781062    0.000000
     15          1           0        3.427335    1.328614    0.000000
     16          1           0        3.032654    3.774981    0.000000
     17          1           0        0.718437    4.681401    0.000000
     18          1           0       -1.203149    3.113966    0.000000
     19          1           0       -2.135526    1.197086    0.000000
     20          1           0       -3.363206   -1.082371    0.000000
     21          1           0       -3.232060   -3.559994    0.000000
     22          1           0       -1.002523   -4.673311    0.000000
     23          1           0        1.035781   -3.298799    0.000000
     24          1           0        1.935016   -1.065806    0.859585
     25          1           0        1.935016   -1.065806   -0.859585
 ---------------------------------------------------------------------

 SCF Done:  E(RM062X) =  -539.753645886     A.U. after   15 cycles

 Excitation energies and oscillator strengths:

 Excited State   1:      Singlet-A'     2.9128 eV  425.65 nm  f=0.0306  <S**2>=0.000
      47 -> 48         0.70369
 This state for optimization and/or second-order correction.
 Total Energy, E(TD-HF/TD-DFT) =  -539.646600820
 Copying the excited state density for this state as the 1-particle RhoCI density.

 The electronic state is 1-A'.
 Alpha  occ. eigenvalues --  -10.77260 -10.73857 -10.73282 -10.72239 -10.72126
 Alpha  occ. eigenvalues --  -10.71567 -10.71483 -10.71468 -10.71180 -10.70851
 Alpha  occ. eigenvalues --  -10.70804 -10.69811 -10.69800 -10.69601  -1.16428
 Alpha  occ. eigenvalues --   -1.12388  -1.06871  -1.05536  -1.01253  -1.00163
 Alpha  occ. eigenvalues --   -0.95669  -0.90935  -0.86676  -0.85628  -0.83752
 Alpha  occ. eigenvalues --   -0.78262  -0.75860  -0.74266  -0.69750  -0.69283
 Alpha  occ. eigenvalues --   -0.68262  -0.68005  -0.67770  -0.64505  -0.64033
 Alpha  occ. eigenvalues --   -0.63077  -0.61860  -0.60123  -0.59603  -0.58990
 Alpha  occ. eigenvalues --   -0.56746  -0.55247  -0.54837  -0.52351  -0.46637
 Alpha  occ. eigenvalues --   -0.45993  -0.44630
 Alpha virt. eigenvalues --   -0.25875  -0.14744  -0.14115  -0.12874  -0.11177
 Alpha virt. eigenvalues --   -0.10104  -0.09240  -0.07986  -0.07963  -0.07485
 Alpha virt. eigenvalues --   -0.07166  -0.07070  -0.05682  -0.05592  -0.05311

 Mulliken charges:
               1
     1  C   -0.074047
     2  C   -0.395061
     3  C   -0.434828
     4  C    0.104319
     5  C   -0.125832
     6  C   -0.469117
     7  C   -0.351736
     8  C    0.170824
     9  C   -0.454419
    10  C   -0.022269
    11  C   -0.538467
    12  C    0.859401
    13  C   -0.498390
    14  C    0.609442
    15  H    0.246389
    16  H    0.253223
    17  H    0.254359
    18  H    0.218235
    19  H    0.171298
    20  H    0.229582
    21  H    0.249719
    22  H    0.255047
    23  H    0.239170
    24  H    0.251578
    25  H    0.251578
 Sum of Mulliken charges =   1.00000

 Dipole moment (field-independent basis, Debye):
    X=             -0.1503    Y=              0.1941    Z=              0.0000  Tot=              0.2455
 Quadrupole moment (field-independent basis, Debye-Ang):
   XX=            -51.1302   YY=            -35.8703   ZZ=            -84.2551
   XY=             10.3331   XZ=              0.0000   YZ=             -0.0000

 Normal termination of Gaussian 16 at Tue Aug  2 13:04:45 2022.
