 Gaussian 16, Revision C.01,
 Gaussian 16:  ES64L-G16RevC.01  3-Jul-2019

 ---------------------------------------------------------------
 #n M062X/6-311++G(d,p) TD(NStates=1) EmpiricalDispersion=GD3 SP
 ---------------------------------------------------------------

 -----
 SP_-2
 -----
 Symbolic Z-matrix:
 Charge =  1 Multiplicity = 1

                         Standard orientation:
 ---------------------------------------------------------------------
 Center     Atomic      Atomic             Coordinates (Angstroms)
 Number     Number       Type             X           Y           Z
 ---------------------------------------------------------------------
      1          6           0        2.506583   -1.354005    0.000000
      2          6           0        3.709751   -0.648220    0.000000
      3          6           0        3.686393    0.735861    0.000000
      4          6           0        2.451631    1.410560    0.000000
      5          6           0       -2.378810    1.417454    0.000000
      6          6           0       -3.640827    0.824929    0.000000
      7          6           0       -3.740794   -0.562057    0.000000
      8          6           0       -2.582917   -1.352812    0.000000
      9          6           0       -0.005597   -1.514642    0.000000
     10          6           0        0.000000    1.367980    0.000000
     11          6           0        1.255746   -0.699506    0.000000
     12          6           0        1.243629    0.704525    0.000000
     13          6           0       -1.293010   -0.760877    0.000000
     14          6           0       -1.215891    0.650363    0.000000
     15          1           0        2.528379   -2.437458    0.000000
     16          1           0        4.646273   -1.184257    0.000000
     17          1           0        4.608877    1.304211    0.000000
     18          1           0        2.433638    2.493284    0.000000
     19          1           0       -0.040434    2.445458    0.000000
     20          1           0       -2.285595    2.499190    0.000000
     21          1           0       -4.528753    1.445357    0.000000
     22          1           0       -4.714260   -1.033131    0.000000
     23          1           0       -2.679948   -2.435209    0.000000
     24          1           0        0.028253   -2.207388    0.859585
     25          1           0        0.028253   -2.207388   -0.859585
 ---------------------------------------------------------------------

 SCF Done:  E(RM062X) =  -539.759478117     A.U. after   15 cycles

 Excitation energies and oscillator strengths:

 Excited State   1:      Singlet-A'     2.9204 eV  424.54 nm  f=0.0305  <S**2>=0.000
      47 -> 48         0.70372
 This state for optimization and/or second-order correction.
 Total Energy, E(TD-HF/TD-DFT) =  -539.652153719
 Copying the excited state density for this state as the 1-particle RhoCI density.

 The electronic state is 1-A'.
 Alpha  occ. eigenvalues --  -10.77154 -10.73681 -10.73393 -10.72167 -10.72108
 Alpha  occ. eigenvalues --  -10.71439 -10.71383 -10.71282 -10.71245 -10.70973
 Alpha  occ. eigenvalues --  -10.70511 -10.70015 -10.69721 -10.69621  -1.16431
 Alpha  occ. eigenvalues --   -1.12410  -1.06905  -1.05555  -1.01258  -1.00182
 Alpha  occ. eigenvalues --   -0.95715  -0.91000  -0.86513  -0.85816  -0.83787
 Alpha  occ. eigenvalues --   -0.78315  -0.75897  -0.74335  -0.69721  -0.69227
 Alpha  occ. eigenvalues --   -0.68333  -0.68074  -0.67837  -0.64534  -0.64056
 Alpha  occ. eigenvalues --   -0.63208  -0.61951  -0.60166  -0.59626  -0.59034
 Alpha  occ. eigenvalues --   -0.56826  -0.55202  -0.54882  -0.52376  -0.46635
 Alpha  occ. eigenvalues --   -0.45998  -0.44666
 Alpha virt. eigenvalues --   -0.25882  -0.14705  -0.14087  -0.12850  -0.11166
 Alpha virt. eigenvalues --   -0.10093  -0.09238  -0.07979  -0.07956  -0.07477
 Alpha virt. eigenvalues --   -0.07155  -0.07060  -0.05667  -0.05591  -0.05310

 Mulliken charges:
               1
     1  C    0.112302
     2  C   -0.368300
     3  C   -0.463646
     4  C   -0.044523
     5  C    0.068296
     6  C   -0.444301
     7  C   -0.390931
     8  C   -0.011723
     9  C   -0.423649
    10  C   -0.008720
    11  C   -0.528869
    12  C    0.656040
    13  C   -0.544754
    14  C    0.779275
    15  H    0.239552
    16  H    0.254156
    17  H    0.250109
    18  H    0.228151
    19  H    0.167614
    20  H    0.222856
    21  H    0.252484
    22  H    0.253138
    23  H    0.243218
    24  H    0.251112
    25  H    0.251112
 Sum of Mulliken charges =   1.00000

 Dipole moment (field-independent basis, Debye):
    X=             -0.0513    Y=              0.2226    Z=              0.0000  Tot=              0.2284
 Quadrupole moment (field-independent basis, Debye-Ang):
   XX=            -30.7008   YY=            -56.3422   ZZ=            -84.2050
   XY=             -0.1346   XZ=             -0.0000   YZ=              0.0000

 Normal termination of Gaussian 16 at Tue Aug  2 12:33:46 2022.
