 Gaussian 16, Revision C.01,
 Gaussian 16:  ES64L-G16RevC.01  3-Jul-2019

 ---------------------------------------------------------------
 #n M062X/6-311++G(d,p) TD(NStates=1) EmpiricalDispersion=GD3 SP
 ---------------------------------------------------------------

 ----
 SP_8
 ----
 Symbolic Z-matrix:
 Charge =  1 Multiplicity = 1

                         Standard orientation:
 ---------------------------------------------------------------------
 Center     Atomic      Atomic             Coordinates (Angstroms)
 Number     Number       Type             X           Y           Z
 ---------------------------------------------------------------------
      1          6           0        2.408146    1.780575    0.000000
      2          6           0        2.111016    3.161519    0.000000
      3          6           0        0.784474    3.612796    0.000000
      4          6           0       -0.238351    2.688680    0.000000
      5          6           0       -2.405519   -1.684196    0.000000
      6          6           0       -2.195389   -3.104246    0.000000
      7          6           0       -0.916485   -3.620899    0.000000
      8          6           0        0.145530   -2.723427    0.000000
      9          6           0        1.335419   -0.647997    0.000000
     10          6           0       -1.250605    0.627942    0.000000
     11          6           0        1.341718    0.832587    0.000000
     12          6           0        0.000000    1.322817    0.000000
     13          6           0       -0.022237   -1.331755    0.000000
     14          6           0       -1.306004   -0.792029    0.000000
     15          1           0        3.450674    1.455107    0.000000
     16          1           0        2.915797    3.893667    0.000000
     17          1           0        0.557228    4.671720    0.000000
     18          1           0       -1.279492    3.015504    0.000000
     19          1           0       -2.147692    1.260115    0.000000
     20          1           0       -3.425283   -1.310835    0.000000
     21          1           0       -3.055996   -3.769104    0.000000
     22          1           0       -0.726363   -4.686809    0.000000
     23          1           0        1.165170   -3.098722    0.000000
     24          1           0        1.897841   -1.082422    0.859585
     25          1           0        1.897841   -1.082422   -0.859585
 ---------------------------------------------------------------------

 SCF Done:  E(RM062X) =  -539.729802684     A.U. after   15 cycles

 Excitation energies and oscillator strengths:

 Excited State   1:      Singlet-A'     2.8292 eV  438.23 nm  f=0.0302  <S**2>=0.000
      47 -> 48         0.70386
 This state for optimization and/or second-order correction.
 Total Energy, E(TD-HF/TD-DFT) =  -539.625831196
 Copying the excited state density for this state as the 1-particle RhoCI density.

 The electronic state is 1-A'.
 Alpha  occ. eigenvalues --  -10.77950 -10.74051 -10.73061 -10.72687 -10.72334
 Alpha  occ. eigenvalues --  -10.72007 -10.71741 -10.71693 -10.71197 -10.70993
 Alpha  occ. eigenvalues --  -10.70702 -10.70088 -10.69505 -10.69466  -1.16421
 Alpha  occ. eigenvalues --   -1.12333  -1.06765  -1.05547  -1.01275  -1.00091
 Alpha  occ. eigenvalues --   -0.95514  -0.90711  -0.87051  -0.85155  -0.83631
 Alpha  occ. eigenvalues --   -0.78082  -0.75787  -0.74052  -0.69790  -0.69382
 Alpha  occ. eigenvalues --   -0.68227  -0.67767  -0.67634  -0.64497  -0.63997
 Alpha  occ. eigenvalues --   -0.62574  -0.61445  -0.59906  -0.59510  -0.58851
 Alpha  occ. eigenvalues --   -0.56423  -0.55375  -0.54685  -0.52283  -0.46657
 Alpha  occ. eigenvalues --   -0.45999  -0.44395
 Alpha virt. eigenvalues --   -0.25953  -0.14877  -0.14235  -0.12911  -0.11228
 Alpha virt. eigenvalues --   -0.10148  -0.09240  -0.08014  -0.08008  -0.07527
 Alpha virt. eigenvalues --   -0.07223  -0.07156  -0.05728  -0.05596  -0.05319

 Mulliken charges:
               1
     1  C   -0.173682
     2  C   -0.398283
     3  C   -0.413175
     4  C    0.120235
     5  C   -0.383407
     6  C   -0.457193
     7  C   -0.319555
     8  C    0.290561
     9  C   -0.573369
    10  C   -0.085640
    11  C   -0.554175
    12  C    1.092974
    13  C   -0.350403
    14  C    0.553189
    15  H    0.250728
    16  H    0.254961
    17  H    0.257253
    18  H    0.199684
    19  H    0.200403
    20  H    0.233427
    21  H    0.249981
    22  H    0.258923
    23  H    0.241292
    24  H    0.252635
    25  H    0.252635
 Sum of Mulliken charges =   1.00000

 Dipole moment (field-independent basis, Debye):
    X=             -0.1044    Y=              0.2473    Z=              0.0000  Tot=              0.2684
 Quadrupole moment (field-independent basis, Debye-Ang):
   XX=            -51.5774   YY=            -35.4303   ZZ=            -84.4211
   XY=              9.9523   XZ=              0.0000   YZ=              0.0000

 Normal termination of Gaussian 16 at Tue Aug  2 13:30:07 2022.
