 Gaussian 16, Revision C.01,
 Gaussian 16:  ES64L-G16RevC.01  3-Jul-2019

 ---------------------------------------------------------------
 #n M062X/6-311++G(d,p) TD(NStates=1) EmpiricalDispersion=GD3 SP
 ---------------------------------------------------------------

 ----
 SP_4
 ----
 Symbolic Z-matrix:
 Charge =  1 Multiplicity = 1

                         Standard orientation:
 ---------------------------------------------------------------------
 Center     Atomic      Atomic             Coordinates (Angstroms)
 Number     Number       Type             X           Y           Z
 ---------------------------------------------------------------------
      1          6           0        2.674350   -1.341474    0.000000
      2          6           0        3.778790   -0.448346    0.000000
      3          6           0        3.595334    0.938302    0.000000
      4          6           0        2.293303    1.427890    0.000000
      5          6           0       -2.441529    1.411868    0.000000
      6          6           0       -3.690236    0.754834    0.000000
      7          6           0       -3.718186   -0.627744    0.000000
      8          6           0       -2.519699   -1.350031    0.000000
      9          6           0        0.013593   -1.575915    0.000000
     10          6           0        0.000000    1.306889    0.000000
     11          6           0        1.326252   -0.843082    0.000000
     12          6           0        1.195365    0.570598    0.000000
     13          6           0       -1.248537   -0.722926    0.000000
     14          6           0       -1.249980    0.677158    0.000000
     15          1           0        2.873871   -2.421167    0.000000
     16          1           0        4.789664   -0.849323    0.000000
     17          1           0        4.444196    1.620719    0.000000
     18          1           0        2.101603    2.507034    0.000000
     19          1           0        0.080034    2.381639    0.000000
     20          1           0       -2.402058    2.495310    0.000000
     21          1           0       -4.610532    1.332344    0.000000
     22          1           0       -4.655681   -1.160964    0.000000
     23          1           0       -2.566967   -2.434313    0.000000
     24          1           0       -0.053521   -2.269700    0.859585
     25          1           0       -0.053521   -2.269700   -0.859585
 ---------------------------------------------------------------------

 SCF Done:  E(RM062X) =  -539.748551606     A.U. after   15 cycles

 Excitation energies and oscillator strengths:

 Excited State   1:      Singlet-A'     3.0032 eV  412.84 nm  f=0.0320  <S**2>=0.000
      47 -> 48         0.70310
 This state for optimization and/or second-order correction.
 Total Energy, E(TD-HF/TD-DFT) =  -539.638186750
 Copying the excited state density for this state as the 1-particle RhoCI density.

 The electronic state is 1-A'.
 Alpha  occ. eigenvalues --  -10.76697 -10.74269 -10.73544 -10.71948 -10.71898
 Alpha  occ. eigenvalues --  -10.71876 -10.71747 -10.71517 -10.71382 -10.71330
 Alpha  occ. eigenvalues --  -10.70928 -10.70080 -10.69810 -10.69807  -1.16411
 Alpha  occ. eigenvalues --   -1.12236  -1.06764  -1.05344  -1.01122  -1.00106
 Alpha  occ. eigenvalues --   -0.95541  -0.90818  -0.86655  -0.85643  -0.83637
 Alpha  occ. eigenvalues --   -0.78098  -0.75667  -0.74081  -0.69921  -0.69215
 Alpha  occ. eigenvalues --   -0.68035  -0.67892  -0.67543  -0.64231  -0.63786
 Alpha  occ. eigenvalues --   -0.63075  -0.61898  -0.60259  -0.59479  -0.58889
 Alpha  occ. eigenvalues --   -0.56719  -0.55230  -0.54772  -0.52255  -0.46601
 Alpha  occ. eigenvalues --   -0.45887  -0.44750
 Alpha virt. eigenvalues --   -0.25658  -0.14846  -0.14145  -0.12999  -0.11176
 Alpha virt. eigenvalues --   -0.10113  -0.09246  -0.07990  -0.07944  -0.07486
 Alpha virt. eigenvalues --   -0.07140  -0.06983  -0.05715  -0.05611  -0.05298

 Mulliken charges:
               1
     1  C   -0.141643
     2  C   -0.372554
     3  C   -0.463317
     4  C    0.132114
     5  C   -0.052364
     6  C   -0.490829
     7  C   -0.341292
     8  C    0.131102
     9  C   -0.478530
    10  C   -0.060658
    11  C   -0.455085
    12  C    0.817893
    13  C   -0.409405
    14  C    0.572599
    15  H    0.253472
    16  H    0.251953
    17  H    0.257995
    18  H    0.228412
    19  H    0.136849
    20  H    0.235388
    21  H    0.251639
    22  H    0.252283
    23  H    0.241179
    24  H    0.251399
    25  H    0.251399
 Sum of Mulliken charges =   1.00000

 Dipole moment (field-independent basis, Debye):
    X=              0.1450    Y=              0.2553    Z=             -0.0000  Tot=              0.2936
 Quadrupole moment (field-independent basis, Debye-Ang):
   XX=            -30.2312   YY=            -56.3529   ZZ=            -84.3893
   XY=              0.2912   XZ=             -0.0000   YZ=              0.0000

 Normal termination of Gaussian 16 at Tue Aug  2 13:02:34 2022.
