 Gaussian 16, Revision C.01,
 Gaussian 16:  ES64L-G16RevC.01  3-Jul-2019

 ---------------------------------------------------------------
 #n M062X/6-311++G(d,p) TD(NStates=1) EmpiricalDispersion=GD3 SP
 ---------------------------------------------------------------

 -----
 SP_-4
 -----
 Symbolic Z-matrix:
 Charge =  1 Multiplicity = 1

                         Standard orientation:
 ---------------------------------------------------------------------
 Center     Atomic      Atomic             Coordinates (Angstroms)
 Number     Number       Type             X           Y           Z
 ---------------------------------------------------------------------
      1          6           0       -0.036273   -2.793877    0.000000
      2          6           0        1.107784   -3.584190    0.000000
      3          6           0        2.341505   -2.961687    0.000000
      4          6           0        2.425979   -1.546816    0.000000
      5          6           0        0.125577    2.755655    0.000000
      6          6           0       -0.984327    3.590424    0.000000
      7          6           0       -2.261509    3.034724    0.000000
      8          6           0       -2.423786    1.642565    0.000000
      9          6           0       -1.311669   -0.694283    0.000000
     10          6           0        1.231796    0.662746    0.000000
     11          6           0        0.019450   -1.389455    0.000000
     12          6           0        1.266032   -0.752512    0.000000
     13          6           0       -1.292511    0.787432    0.000000
     14          6           0        0.000000    1.370239    0.000000
     15          1           0       -1.012059   -3.265064    0.000000
     16          1           0        1.021980   -4.660542    0.000000
     17          1           0        3.252537   -3.548761    0.000000
     18          1           0        3.401977   -1.077557    0.000000
     19          1           0        2.144955    1.246311    0.000000
     20          1           0        1.125052    3.179401    0.000000
     21          1           0       -0.848620    4.663438    0.000000
     22          1           0       -3.128673    3.682509    0.000000
     23          1           0       -3.424709    1.220109    0.000000
     24          1           0       -1.890363   -1.082813    0.859585
     25          1           0       -1.890363   -1.082813   -0.859585
 ---------------------------------------------------------------------

 SCF Done:  E(RM062X) =  -539.753862878     A.U. after   15 cycles

 Excitation energies and oscillator strengths:

 Excited State   1:      Singlet-A'     2.8629 eV  433.07 nm  f=0.0298  <S**2>=0.000
      47 -> 48         0.70394
 This state for optimization and/or second-order correction.
 Total Energy, E(TD-HF/TD-DFT) =  -539.648652424
 Copying the excited state density for this state as the 1-particle RhoCI density.

 The electronic state is 1-A'.
 Alpha  occ. eigenvalues --  -10.77536 -10.73669 -10.73173 -10.72429 -10.72236
 Alpha  occ. eigenvalues --  -10.71633 -10.71354 -10.71295 -10.71122 -10.70836
 Alpha  occ. eigenvalues --  -10.70585 -10.69824 -10.69723 -10.69528  -1.16433
 Alpha  occ. eigenvalues --   -1.12425  -1.06895  -1.05624  -1.01291  -1.00169
 Alpha  occ. eigenvalues --   -0.95703  -0.90963  -0.86678  -0.85621  -0.83773
 Alpha  occ. eigenvalues --   -0.78307  -0.75927  -0.74313  -0.69662  -0.69310
 Alpha  occ. eigenvalues --   -0.68366  -0.68039  -0.67889  -0.64614  -0.64144
 Alpha  occ. eigenvalues --   -0.63018  -0.61808  -0.60046  -0.59630  -0.59022
 Alpha  occ. eigenvalues --   -0.56767  -0.55256  -0.54825  -0.52383  -0.46642
 Alpha  occ. eigenvalues --   -0.46025  -0.44546
 Alpha virt. eigenvalues --   -0.25979  -0.14723  -0.14120  -0.12829  -0.11183
 Alpha virt. eigenvalues --   -0.10102  -0.09236  -0.07987  -0.07972  -0.07487
 Alpha virt. eigenvalues --   -0.07188  -0.07115  -0.05671  -0.05586  -0.05320

 Mulliken charges:
               1
     1  C    0.190888
     2  C   -0.360056
     3  C   -0.457808
     4  C   -0.154792
     5  C    0.097360
     6  C   -0.419887
     7  C   -0.408432
     8  C   -0.044972
     9  C   -0.430596
    10  C    0.011652
    11  C   -0.554039
    12  C    0.609321
    13  C   -0.583162
    14  C    0.879875
    15  H    0.238683
    16  H    0.256605
    17  H    0.249049
    18  H    0.228096
    19  H    0.184284
    20  H    0.215041
    21  H    0.252732
    22  H    0.254145
    23  H    0.243152
    24  H    0.251430
    25  H    0.251430
 Sum of Mulliken charges =   1.00000

 Dipole moment (field-independent basis, Debye):
    X=              0.1407    Y=              0.1713    Z=             -0.0000  Tot=              0.2216
 Quadrupole moment (field-independent basis, Debye-Ang):
   XX=            -50.8161   YY=            -36.3577   ZZ=            -84.2210
   XY=            -10.4747   XZ=              0.0000   YZ=              0.0000

 Normal termination of Gaussian 16 at Tue Aug  2 12:22:43 2022.
