 Gaussian 16, Revision C.01,
 Gaussian 16:  ES64L-G16RevC.01  3-Jul-2019

 ---------------------------------------------------------------
 #n M062X/6-311++G(d,p) TD(NStates=1) EmpiricalDispersion=GD3 SP
 ---------------------------------------------------------------

 ------
 SP_-10
 ------
 Symbolic Z-matrix:
 Charge =  1 Multiplicity = 1

                         Standard orientation:
 ---------------------------------------------------------------------
 Center     Atomic      Atomic             Coordinates (Angstroms)
 Number     Number       Type             X           Y           Z
 ---------------------------------------------------------------------
      1          6           0        0.547355    2.529042    0.000000
      2          6           0       -0.236977    3.695351    0.000000
      3          6           0       -1.611159    3.484062    0.000000
      4          6           0       -2.203297    2.126466    0.000000
      5          6           0       -0.532470   -2.714800    0.000000
      6          6           0        0.454903   -3.672358    0.000000
      7          6           0        1.807007   -3.320674    0.000000
      8          6           0        2.156579   -1.974456    0.000000
      9          6           0        1.261014    0.427232    0.000000
     10          6           0       -1.465918   -0.512440    0.000000
     11          6           0        0.000000    1.231286    0.000000
     12          6           0       -1.360833    0.935255    0.000000
     13          6           0        1.126632   -1.013312    0.000000
     14          6           0       -0.263419   -1.350536    0.000000
     15          1           0        1.662910    2.585587    0.000000
     16          1           0        0.221008    4.698677    0.000000
     17          1           0       -2.290551    4.348413    0.000000
     18          1           0       -3.315789    2.062294    0.000000
     19          1           0       -2.434056   -1.070380    0.000000
     20          1           0       -1.572113   -3.016856    0.000000
     21          1           0        0.168768   -4.706888    0.000000
     22          1           0        2.559794   -4.099635    0.000000
     23          1           0        3.194488   -1.664365    0.000000
     24          1           0        1.864520    0.821216    0.859585
     25          1           0        1.864520    0.821216   -0.859585
 ---------------------------------------------------------------------

 SCF Done:  E(RM062X) =  -539.685163162     A.U. after   15 cycles

 Excitation energies and oscillator strengths:

 Excited State   1:      Singlet-A'     2.4719 eV  501.57 nm  f=0.0258  <S**2>=0.000
      47 -> 48         0.70454
 This state for optimization and/or second-order correction.
 Total Energy, E(TD-HF/TD-DFT) =  -539.594321742
 Copying the excited state density for this state as the 1-particle RhoCI density.

 The electronic state is 1-A'.
 Alpha  occ. eigenvalues --  -10.79581 -10.74215 -10.73278 -10.73254 -10.73088
 Alpha  occ. eigenvalues --  -10.72893 -10.71295 -10.71208 -10.71143 -10.70956
 Alpha  occ. eigenvalues --  -10.70658 -10.70461 -10.69889 -10.69105  -1.16432
 Alpha  occ. eigenvalues --   -1.12118  -1.06541  -1.05788  -1.01266  -0.99928
 Alpha  occ. eigenvalues --   -0.95127  -0.90363  -0.87154  -0.84993  -0.83140
 Alpha  occ. eigenvalues --   -0.77800  -0.75749  -0.73630  -0.69703  -0.69142
 Alpha  occ. eigenvalues --   -0.68572  -0.68152  -0.67571  -0.64631  -0.64116
 Alpha  occ. eigenvalues --   -0.61802  -0.60498  -0.59697  -0.58911  -0.58781
 Alpha  occ. eigenvalues --   -0.56341  -0.55373  -0.53977  -0.52187  -0.46643
 Alpha  occ. eigenvalues --   -0.45955  -0.43534
 Alpha virt. eigenvalues --   -0.26419  -0.15302  -0.14537  -0.12794  -0.11364
 Alpha virt. eigenvalues --   -0.10190  -0.09223  -0.08196  -0.08070  -0.07627
 Alpha virt. eigenvalues --   -0.07421  -0.07392  -0.05778  -0.05633  -0.05377

 Mulliken charges:
               1
     1  C    0.386888
     2  C   -0.407861
     3  C   -0.424826
     4  C   -0.133377
     5  C    0.009733
     6  C   -0.292621
     7  C   -0.300405
     8  C   -0.387098
     9  C   -0.561716
    10  C   -0.267474
    11  C    0.298955
    12  C    0.066055
    13  C   -0.516995
    14  C    0.823005
    15  H    0.251868
    16  H    0.270182
    17  H    0.245127
    18  H    0.269373
    19  H    0.246913
    20  H    0.184408
    21  H    0.250743
    22  H    0.261170
    23  H    0.223953
    24  H    0.252001
    25  H    0.252001
 Sum of Mulliken charges =   1.00000

 Dipole moment (field-independent basis, Debye):
    X=             -0.0516    Y=             -0.0515    Z=             -0.0000  Tot=              0.0729
 Quadrupole moment (field-independent basis, Debye-Ang):
   XX=            -53.6321   YY=            -33.8755   ZZ=            -84.7283
   XY=             -7.0828   XZ=             -0.0000   YZ=             -0.0000

 Normal termination of Gaussian 16 at Tue Aug  2 11:51:45 2022.
