 Gaussian 16, Revision C.01,
 Gaussian 16:  ES64L-G16RevC.01  3-Jul-2019

 ---------------------------------------------------------------
 #n M062X/6-311++G(d,p) TD(NStates=1) EmpiricalDispersion=GD3 SP
 ---------------------------------------------------------------

 ----
 SP_0
 ----
 Symbolic Z-matrix:
 Charge =  1 Multiplicity = 1

                         Standard orientation:
 ---------------------------------------------------------------------
 Center     Atomic      Atomic             Coordinates (Angstroms)
 Number     Number       Type             X           Y           Z
 ---------------------------------------------------------------------
      1          6           0        0.000000    2.440655   -1.367168
      2          6           0        0.000000    3.677508   -0.738726
      3          6           0        0.000000    3.703861    0.647093
      4          6           0        0.000000    2.511156    1.400801
      5          6           0       -0.000000   -2.511156    1.400801
      6          6           0       -0.000000   -3.703861    0.647093
      7          6           0       -0.000000   -3.677508   -0.738726
      8          6           0       -0.000000   -2.440655   -1.367168
      9          6           0       -0.000000    0.000000   -1.392106
     10          6           0        0.000000   -0.000000    1.490452
     11          6           0        0.000000    1.250055   -0.623802
     12          6           0        0.000000    1.245471    0.784067
     13          6           0       -0.000000   -1.250055   -0.623802
     14          6           0       -0.000000   -1.245471    0.784067
     15          1           0        0.000000    2.372071   -2.450384
     16          1           0        0.000000    4.592753   -1.314426
     17          1           0        0.000000    4.649262    1.169612
     18          1           0        0.000000    2.575550    2.483322
     19          1           0        0.000000   -0.000000    2.575529
     20          1           0       -0.000000   -2.575550    2.483322
     21          1           0       -0.000000   -4.649262    1.169612
     22          1           0       -0.000000   -4.592753   -1.314426
     23          1           0       -0.000000   -2.372071   -2.450384
     24          1           0        0.859585   -0.000000   -2.084524
     25          1           0       -0.859585    0.000000   -2.084524
 ---------------------------------------------------------------------

 SCF Done:  E(RM062X) =  -539.753506334     A.U. after   15 cycles

 Excitation energies and oscillator strengths:

 Excited State   1:      Singlet-A1     2.7103 eV  457.45 nm  f=0.0267  <S**2>=0.000
      47 -> 48         0.70472
 This state for optimization and/or second-order correction.
 Total Energy, E(TD-HF/TD-DFT) =  -539.653903113
 Copying the excited state density for this state as the 1-particle RhoCI density.

 The electronic state is 1-A1.
 Alpha  occ. eigenvalues --  -10.78199 -10.73019 -10.73018 -10.72797 -10.72796
 Alpha  occ. eigenvalues --  -10.71516 -10.71516 -10.70959 -10.70959 -10.70640
 Alpha  occ. eigenvalues --  -10.69826 -10.69826 -10.69676 -10.69676  -1.16449
 Alpha  occ. eigenvalues --   -1.12406  -1.06902  -1.05876  -1.01291  -1.00125
 Alpha  occ. eigenvalues --   -0.95753  -0.91009  -0.86385  -0.85900  -0.83729
 Alpha  occ. eigenvalues --   -0.78364  -0.76061  -0.74358  -0.69377  -0.69294
 Alpha  occ. eigenvalues --   -0.68637  -0.68366  -0.68224  -0.64821  -0.64415
 Alpha  occ. eigenvalues --   -0.62791  -0.61674  -0.59788  -0.59642  -0.59088
 Alpha  occ. eigenvalues --   -0.56951  -0.55254  -0.54678  -0.52450  -0.46570
 Alpha  occ. eigenvalues --   -0.46072  -0.44261
 Alpha virt. eigenvalues --   -0.26279  -0.14720  -0.14173  -0.12763  -0.11211
 Alpha virt. eigenvalues --   -0.10089  -0.09223  -0.08000  -0.07995  -0.07474
 Alpha virt. eigenvalues --   -0.07277  -0.07242  -0.05642  -0.05583  -0.05360

 Mulliken charges:
               1
     1  C   -0.039660
     2  C   -0.384796
     3  C   -0.445401
     4  C    0.195112
     5  C    0.195112
     6  C   -0.445401
     7  C   -0.384796
     8  C   -0.039660
     9  C   -0.280852
    10  C    0.002760
    11  C   -0.346133
    12  C    0.340256
    13  C   -0.346133
    14  C    0.340256
    15  H    0.233595
    16  H    0.259563
    17  H    0.246198
    18  H    0.228030
    19  H    0.206965
    20  H    0.228030
    21  H    0.246198
    22  H    0.259563
    23  H    0.233595
    24  H    0.248799
    25  H    0.248799
 Sum of Mulliken charges =   1.00000

 Dipole moment (field-independent basis, Debye):
    X=             -0.0000    Y=             -0.0000    Z=              0.1471  Tot=              0.1471
 Quadrupole moment (field-independent basis, Debye-Ang):
   XX=            -84.1853   YY=            -31.4981   ZZ=            -56.1234
   XY=              0.0000   XZ=              0.0000   YZ=              0.0000

 Normal termination of Gaussian 16 at Tue Aug  2 12:46:27 2022.
