 Gaussian 16, Revision C.01,
 Gaussian 16:  ES64L-G16RevC.01  3-Jul-2019

 ---------------------------------------------------------------
 #n M062X/6-311++G(d,p) TD(NStates=1) EmpiricalDispersion=GD3 SP
 ---------------------------------------------------------------

 ----
 SP_0
 ----
 Symbolic Z-matrix:
 Charge =  1 Multiplicity = 1

                         Standard orientation:
 ---------------------------------------------------------------------
 Center     Atomic      Atomic             Coordinates (Angstroms)
 Number     Number       Type             X           Y           Z
 ---------------------------------------------------------------------
      1          6           0        0.000000    2.622655    1.343589
      2          6           0        0.000000    3.761508    0.505147
      3          6           0        0.000000    3.633861   -0.880672
      4          6           0        0.000000    2.343156   -1.424380
      5          6           0       -0.000000   -2.343156   -1.424380
      6          6           0       -0.000000   -3.633861   -0.880672
      7          6           0       -0.000000   -3.761508    0.505147
      8          6           0       -0.000000   -2.622655    1.343589
      9          6           0       -0.000000   -0.000000    1.606527
     10          6           0        0.000000    0.000000   -1.276031
     11          6           0        0.000000    1.292055    0.810223
     12          6           0        0.000000    1.217471   -0.597646
     13          6           0       -0.000000   -1.292055    0.810223
     14          6           0       -0.000000   -1.217471   -0.597646
     15          1           0        0.000000    2.778071    2.426805
     16          1           0        0.000000    4.746753    0.954847
     17          1           0        0.000000    4.509262   -1.529191
     18          1           0        0.000000    2.197550   -2.506901
     19          1           0        0.000000    0.000000   -2.347108
     20          1           0       -0.000000   -2.197550   -2.506901
     21          1           0       -0.000000   -4.509262   -1.529191
     22          1           0       -0.000000   -4.746753    0.954847
     23          1           0       -0.000000   -2.778071    2.426805
     24          1           0       -0.859585    0.000000    2.298945
     25          1           0        0.859585   -0.000000    2.298945
 ---------------------------------------------------------------------

 SCF Done:  E(RM062X) =  -539.752085371     A.U. after   14 cycles

 Excitation energies and oscillator strengths:

 Excited State   1:      Singlet-A1     3.0499 eV  406.52 nm  f=0.0326  <S**2>=0.000
      47 -> 48         0.70277
 This state for optimization and/or second-order correction.
 Total Energy, E(TD-HF/TD-DFT) =  -539.640005142
 Copying the excited state density for this state as the 1-particle RhoCI density.

 The electronic state is 1-A1.
 Alpha  occ. eigenvalues --  -10.76274 -10.74055 -10.74055 -10.71953 -10.71754
 Alpha  occ. eigenvalues --  -10.71752 -10.71486 -10.71485 -10.71410 -10.71410
 Alpha  occ. eigenvalues --  -10.70893 -10.70893 -10.69852 -10.69852  -1.16398
 Alpha  occ. eigenvalues --   -1.12144  -1.06730  -1.05264  -1.01041  -1.00081
 Alpha  occ. eigenvalues --   -0.95512  -0.90815  -0.86421  -0.85888  -0.83590
 Alpha  occ. eigenvalues --   -0.78045  -0.75574  -0.74047  -0.69923  -0.69128
 Alpha  occ. eigenvalues --   -0.68073  -0.67843  -0.67525  -0.64105  -0.63582
 Alpha  occ. eigenvalues --   -0.63311  -0.61994  -0.60379  -0.59412  -0.58888
 Alpha  occ. eigenvalues --   -0.56818  -0.55157  -0.54778  -0.52225  -0.46582
 Alpha  occ. eigenvalues --   -0.45815  -0.44825
 Alpha virt. eigenvalues --   -0.25560  -0.14863  -0.14157  -0.13043  -0.11164
 Alpha virt. eigenvalues --   -0.10104  -0.09247  -0.07985  -0.07931  -0.07479
 Alpha virt. eigenvalues --   -0.07121  -0.06935  -0.05723  -0.05622  -0.05296

 Mulliken charges:
               1
     1  C   -0.031804
     2  C   -0.359674
     3  C   -0.484322
     4  C    0.092563
     5  C    0.092563
     6  C   -0.484322
     7  C   -0.359674
     8  C   -0.031804
     9  C   -0.445469
    10  C   -0.060170
    11  C   -0.415356
    12  C    0.651491
    13  C   -0.415356
    14  C    0.651491
    15  H    0.248093
    16  H    0.250585
    17  H    0.255609
    18  H    0.239717
    19  H    0.109719
    20  H    0.239717
    21  H    0.255609
    22  H    0.250585
    23  H    0.248093
    24  H    0.251057
    25  H    0.251057
 Sum of Mulliken charges =   1.00000

 Dipole moment (field-independent basis, Debye):
    X=             -0.0000    Y=             -0.0000    Z=             -0.2671  Tot=              0.2671
 Quadrupole moment (field-independent basis, Debye-Ang):
   XX=            -84.4245   YY=            -30.0659   ZZ=            -56.3362
   XY=              0.0000   XZ=             -0.0000   YZ=             -0.0000

 Normal termination of Gaussian 16 at Tue Aug  2 12:42:09 2022.
