 Gaussian 16, Revision C.01,
 Gaussian 16:  ES64L-G16RevC.01  3-Jul-2019

 ---------------------------------------------------------------
 #n M062X/6-311++G(d,p) TD(NStates=1) EmpiricalDispersion=GD3 SP
 ---------------------------------------------------------------

 -----
 SP_-2
 -----
 Symbolic Z-matrix:
 Charge =  1 Multiplicity = 1

                         Standard orientation:
 ---------------------------------------------------------------------
 Center     Atomic      Atomic             Coordinates (Angstroms)
 Number     Number       Type             X           Y           Z
 ---------------------------------------------------------------------
      1          6           0        0.190398    2.757367    0.000000
      2          6           0       -0.882303    3.637536    0.000000
      3          6           0       -2.156966    3.096306    0.000000
      4          6           0       -2.362326    1.690763    0.000000
      5          6           0       -0.193493   -2.839256    0.000000
      6          6           0        0.972205   -3.618097    0.000000
      7          6           0        2.228070   -3.027466    0.000000
      8          6           0        2.306496   -1.641639    0.000000
      9          6           0        1.256554    0.599242    0.000000
     10          6           0       -1.343734   -0.644961    0.000000
     11          6           0        0.000000    1.367812    0.000000
     12          6           0       -1.277098    0.784625    0.000000
     13          6           0        1.139450   -0.859128    0.000000
     14          6           0       -0.148788   -1.437420    0.000000
     15          1           0        1.211821    3.130704    0.000000
     16          1           0       -0.722904    4.708271    0.000000
     17          1           0       -3.020802    3.748182    0.000000
     18          1           0       -3.381338    1.313929    0.000000
     19          1           0       -2.304491   -1.151752    0.000000
     20          1           0       -1.157725   -3.332647    0.000000
     21          1           0        0.880045   -4.692762    0.000000
     22          1           0        3.122630   -3.633791    0.000000
     23          1           0        3.269574   -1.144161    0.000000
     24          1           0        1.866198    0.929965    0.859585
     25          1           0        1.866198    0.929965   -0.859585
 ---------------------------------------------------------------------

 SCF Done:  E(RM062X) =  -539.751544465     A.U. after   15 cycles

 Excitation energies and oscillator strengths:

 Excited State   1:      Singlet-A'     2.7062 eV  458.14 nm  f=0.0268  <S**2>=0.000
      47 -> 48         0.70468
 This state for optimization and/or second-order correction.
 Total Energy, E(TD-HF/TD-DFT) =  -539.652092133
 Copying the excited state density for this state as the 1-particle RhoCI density.

 The electronic state is 1-A'.
 Alpha  occ. eigenvalues --  -10.78235 -10.73089 -10.72985 -10.72901 -10.72708
 Alpha  occ. eigenvalues --  -10.71741 -10.71311 -10.71027 -10.70912 -10.70674
 Alpha  occ. eigenvalues --  -10.69958 -10.69831 -10.69724 -10.69541  -1.16447
 Alpha  occ. eigenvalues --   -1.12400  -1.06890  -1.05870  -1.01292  -1.00120
 Alpha  occ. eigenvalues --   -0.95734  -0.90987  -0.86474  -0.85806  -0.83715
 Alpha  occ. eigenvalues --   -0.78347  -0.76048  -0.74335  -0.69374  -0.69314
 Alpha  occ. eigenvalues --   -0.68648  -0.68344  -0.68175  -0.64812  -0.64403
 Alpha  occ. eigenvalues --   -0.62762  -0.61637  -0.59795  -0.59615  -0.59077
 Alpha  occ. eigenvalues --   -0.56925  -0.55265  -0.54663  -0.52441  -0.46576
 Alpha  occ. eigenvalues --   -0.46069  -0.44245
 Alpha virt. eigenvalues --   -0.26278  -0.14735  -0.14183  -0.12766  -0.11215
 Alpha virt. eigenvalues --   -0.10093  -0.09224  -0.08002  -0.08000  -0.07478
 Alpha virt. eigenvalues --   -0.07280  -0.07247  -0.05648  -0.05584  -0.05361

 Mulliken charges:
               1
     1  C    0.053745
     2  C   -0.387081
     3  C   -0.463132
     4  C    0.172495
     5  C    0.197690
     6  C   -0.421124
     7  C   -0.379237
     8  C   -0.131627
     9  C   -0.289691
    10  C   -0.006672
    11  C   -0.291587
    12  C    0.224015
    13  C   -0.376976
    14  C    0.457471
    15  H    0.236326
    16  H    0.260458
    17  H    0.245450
    18  H    0.234620
    19  H    0.208198
    20  H    0.220957
    21  H    0.247336
    22  H    0.259004
    23  H    0.231060
    24  H    0.249151
    25  H    0.249151
 Sum of Mulliken charges =   1.00000

 Dipole moment (field-independent basis, Debye):
    X=             -0.1247    Y=             -0.0786    Z=             -0.0000  Tot=              0.1474
 Quadrupole moment (field-independent basis, Debye-Ang):
   XX=            -51.6048   YY=            -36.0044   ZZ=            -84.2023
   XY=             -9.5355   XZ=              0.0000   YZ=              0.0000

 Normal termination of Gaussian 16 at Tue Aug  2 12:38:13 2022.
