 Gaussian 16, Revision C.01,
 Gaussian 16:  ES64L-G16RevC.01  3-Jul-2019

 ---------------------------------------------------------------
 #n M062X/6-311++G(d,p) TD(NStates=1) EmpiricalDispersion=GD3 SP
 ---------------------------------------------------------------

 ----
 SP_8
 ----
 Symbolic Z-matrix:
 Charge =  1 Multiplicity = 1

                         Standard orientation:
 ---------------------------------------------------------------------
 Center     Atomic      Atomic             Coordinates (Angstroms)
 Number     Number       Type             X           Y           Z
 ---------------------------------------------------------------------
      1          6           0       -2.143422   -1.907894    0.000000
      2          6           0       -1.876022   -3.267493    0.000000
      3          6           0       -0.544080   -3.678341    0.000000
      4          6           0        0.503708   -2.770219    0.000000
      5          6           0        2.204939    2.110081    0.000000
      6          6           0        1.625115    3.468034    0.000000
      7          6           0        0.252506    3.697999    0.000000
      8          6           0       -0.545196    2.542409    0.000000
      9          6           0       -1.229692    0.423547    0.000000
     10          6           0        1.493389   -0.525331    0.000000
     11          6           0       -1.066189   -1.005038    0.000000
     12          6           0        0.307391   -1.384061    0.000000
     13          6           0        0.000000    1.241731    0.000000
     14          6           0        1.358471    0.920843    0.000000
     15          1           0       -3.159892   -1.529858    0.000000
     16          1           0       -2.669621   -4.003006    0.000000
     17          1           0       -0.309674   -4.725856    0.000000
     18          1           0        1.522600   -3.138334    0.000000
     19          1           0        2.472724   -1.046246    0.000000
     20          1           0        3.317310    2.036265    0.000000
     21          1           0        2.312840    4.323377    0.000000
     22          1           0       -0.188106    4.708023    0.000000
     23          1           0       -1.661314    2.606724    0.000000
     24          1           0       -1.841183    0.785654    0.859585
     25          1           0       -1.841183    0.785654   -0.859585
 ---------------------------------------------------------------------

 SCF Done:  E(RM062X) =  -539.695593952     A.U. after   16 cycles

 Excitation energies and oscillator strengths:

 Excited State   1:      Singlet-A'     2.4383 eV  508.49 nm  f=0.0245  <S**2>=0.000
      47 -> 48         0.70472
 This state for optimization and/or second-order correction.
 Total Energy, E(TD-HF/TD-DFT) =  -539.605989131
 Copying the excited state density for this state as the 1-particle RhoCI density.

 The electronic state is 1-A'.
 Alpha  occ. eigenvalues --  -10.79530 -10.74251 -10.73205 -10.73063 -10.73033
 Alpha  occ. eigenvalues --  -10.72967 -10.71188 -10.71132 -10.70903 -10.70868
 Alpha  occ. eigenvalues --  -10.70767 -10.70180 -10.69988 -10.69203  -1.16453
 Alpha  occ. eigenvalues --   -1.12064  -1.06546  -1.05900  -1.01189  -0.99894
 Alpha  occ. eigenvalues --   -0.95194  -0.90452  -0.86937  -0.85218  -0.83151
 Alpha  occ. eigenvalues --   -0.77870  -0.75786  -0.73684  -0.69589  -0.69175
 Alpha  occ. eigenvalues --   -0.68653  -0.68485  -0.67663  -0.64637  -0.64247
 Alpha  occ. eigenvalues --   -0.61865  -0.60623  -0.59631  -0.58928  -0.58827
 Alpha  occ. eigenvalues --   -0.56592  -0.55380  -0.53960  -0.52234  -0.46547
 Alpha  occ. eigenvalues --   -0.45954  -0.43492
 Alpha virt. eigenvalues --   -0.26515  -0.15270  -0.14529  -0.12807  -0.11361
 Alpha virt. eigenvalues --   -0.10162  -0.09215  -0.08177  -0.08075  -0.07593
 Alpha virt. eigenvalues --   -0.07445  -0.07415  -0.05750  -0.05634  -0.05398

 Mulliken charges:
               1
     1  C   -0.293667
     2  C   -0.317808
     3  C   -0.297611
     4  C    0.089228
     5  C   -0.059022
     6  C   -0.420512
     7  C   -0.402997
     8  C    0.331348
     9  C   -0.511369
    10  C   -0.192427
    11  C   -0.554662
    12  C    0.705716
    13  C    0.072652
    14  C    0.140368
    15  H    0.226060
    16  H    0.260806
    17  H    0.247394
    18  H    0.198462
    19  H    0.241826
    20  H    0.267927
    21  H    0.243312
    22  H    0.270815
    23  H    0.251538
    24  H    0.251312
    25  H    0.251312
 Sum of Mulliken charges =   1.00000

 Dipole moment (field-independent basis, Debye):
    X=              0.0462    Y=             -0.0128    Z=              0.0000  Tot=              0.0479
 Quadrupole moment (field-independent basis, Debye-Ang):
   XX=            -53.4520   YY=            -34.2273   ZZ=            -84.6797
   XY=              7.1003   XZ=              0.0000   YZ=              0.0000

 Normal termination of Gaussian 16 at Tue Aug  2 13:36:45 2022.
