 Gaussian 16, Revision C.01,
 Gaussian 16:  ES64L-G16RevC.01  3-Jul-2019

 ---------------------------------------------------------------
 #n M062X/6-311++G(d,p) TD(NStates=1) EmpiricalDispersion=GD3 SP
 ---------------------------------------------------------------

 ----
 SP_0
 ----
 Symbolic Z-matrix:
 Charge =  1 Multiplicity = 1

                         Standard orientation:
 ---------------------------------------------------------------------
 Center     Atomic      Atomic             Coordinates (Angstroms)
 Number     Number       Type             X           Y           Z
 ---------------------------------------------------------------------
      1          6           0        0.000000    2.596655    1.346957
      2          6           0        0.000000    3.749508    0.538515
      3          6           0        0.000000    3.643861   -0.847304
      4          6           0        0.000000    2.367156   -1.421012
      5          6           0       -0.000000   -2.367156   -1.421012
      6          6           0       -0.000000   -3.643861   -0.847304
      7          6           0       -0.000000   -3.749508    0.538515
      8          6           0       -0.000000   -2.596655    1.346957
      9          6           0       -0.000000   -0.000000    1.575895
     10          6           0        0.000000    0.000000   -1.306663
     11          6           0        0.000000    1.286055    0.783591
     12          6           0        0.000000    1.221471   -0.624278
     13          6           0       -0.000000   -1.286055    0.783591
     14          6           0       -0.000000   -1.221471   -0.624278
     15          1           0        0.000000    2.720071    2.430173
     16          1           0        0.000000    4.724753    1.006215
     17          1           0        0.000000    4.529262   -1.477823
     18          1           0        0.000000    2.251550   -2.503533
     19          1           0        0.000000    0.000000   -2.379740
     20          1           0       -0.000000   -2.251550   -2.503533
     21          1           0       -0.000000   -4.529262   -1.477823
     22          1           0       -0.000000   -4.724753    1.006215
     23          1           0       -0.000000   -2.720071    2.430173
     24          1           0       -0.859585    0.000000    2.268313
     25          1           0        0.859585   -0.000000    2.268313
 ---------------------------------------------------------------------

 SCF Done:  E(RM062X) =  -539.756785322     A.U. after   15 cycles

 Excitation energies and oscillator strengths:

 Excited State   1:      Singlet-A1     3.0107 eV  411.81 nm  f=0.0319  <S**2>=0.000
      47 -> 48         0.70313
 This state for optimization and/or second-order correction.
 Total Energy, E(TD-HF/TD-DFT) =  -539.646144600
 Copying the excited state density for this state as the 1-particle RhoCI density.

 The electronic state is 1-A1.
 Alpha  occ. eigenvalues --  -10.76559 -10.73867 -10.73866 -10.71863 -10.71861
 Alpha  occ. eigenvalues --  -10.71747 -10.71407 -10.71407 -10.71296 -10.71296
 Alpha  occ. eigenvalues --  -10.70648 -10.70648 -10.69769 -10.69769  -1.16412
 Alpha  occ. eigenvalues --   -1.12262  -1.06813  -1.05369  -1.01131  -1.00134
 Alpha  occ. eigenvalues --   -0.95603  -0.90904  -0.86430  -0.85898  -0.83682
 Alpha  occ. eigenvalues --   -0.78166  -0.75707  -0.74180  -0.69852  -0.69154
 Alpha  occ. eigenvalues --   -0.68185  -0.67940  -0.67633  -0.64261  -0.63758
 Alpha  occ. eigenvalues --   -0.63330  -0.62014  -0.60321  -0.59507  -0.58954
 Alpha  occ. eigenvalues --   -0.56826  -0.55164  -0.54847  -0.52288  -0.46606
 Alpha  occ. eigenvalues --   -0.45892  -0.44792
 Alpha virt. eigenvalues --   -0.25670  -0.14788  -0.14116  -0.12964  -0.11160
 Alpha virt. eigenvalues --   -0.10098  -0.09244  -0.07980  -0.07940  -0.07477
 Alpha virt. eigenvalues --   -0.07125  -0.06975  -0.05699  -0.05609  -0.05298

 Mulliken charges:
               1
     1  C   -0.003904
     2  C   -0.365863
     3  C   -0.476344
     4  C    0.066675
     5  C    0.066675
     6  C   -0.476344
     7  C   -0.365863
     8  C   -0.003904
     9  C   -0.437193
    10  C   -0.047190
    11  C   -0.450965
    12  C    0.670710
    13  C   -0.450965
    14  C    0.670710
    15  H    0.245325
    16  H    0.251357
    17  H    0.253910
    18  H    0.234198
    19  H    0.131841
    20  H    0.234198
    21  H    0.253910
    22  H    0.251357
    23  H    0.245325
    24  H    0.251172
    25  H    0.251172
 Sum of Mulliken charges =   1.00000

 Dipole moment (field-independent basis, Debye):
    X=             -0.0000    Y=              0.0000    Z=             -0.2530  Tot=              0.2530
 Quadrupole moment (field-independent basis, Debye-Ang):
   XX=            -84.3238   YY=            -30.2901   ZZ=            -56.3561
   XY=              0.0000   XZ=              0.0000   YZ=             -0.0000

 Normal termination of Gaussian 16 at Tue Aug  2 12:42:45 2022.
