 Gaussian 16, Revision C.01,
 Gaussian 16:  ES64L-G16RevC.01  3-Jul-2019

 ---------------------------------------------------------------
 #n M062X/6-311++G(d,p) TD(NStates=1) EmpiricalDispersion=GD3 SP
 ---------------------------------------------------------------

 ----
 SP_2
 ----
 Symbolic Z-matrix:
 Charge =  1 Multiplicity = 1

                         Standard orientation:
 ---------------------------------------------------------------------
 Center     Atomic      Atomic             Coordinates (Angstroms)
 Number     Number       Type             X           Y           Z
 ---------------------------------------------------------------------
      1          6           0       -2.397210    1.384821    0.000000
      2          6           0       -3.656594    0.806762    0.000000
      3          6           0       -3.714565   -0.581432    0.000000
      4          6           0       -2.550966   -1.388128    0.000000
      5          6           0        2.615469   -1.392925    0.000000
      6          6           0        3.752876   -0.512332    0.000000
      7          6           0        3.626168    0.870747    0.000000
      8          6           0        2.328280    1.369359    0.000000
      9          6           0        0.000000    1.300235    0.000000
     10          6           0       -0.002591   -1.582391    0.000000
     11          6           0       -1.247718    0.578382    0.000000
     12          6           0       -1.244607   -0.833494    0.000000
     13          6           0        1.216854    0.509265    0.000000
     14          6           0        1.270748   -0.894304    0.000000
     15          1           0       -2.267170    2.468842    0.000000
     16          1           0       -4.559481    1.407020    0.000000
     17          1           0       -4.675010   -1.073761    0.000000
     18          1           0       -2.670820   -2.471392    0.000000
     19          1           0       -0.046000   -2.673750    0.000000
     20          1           0        2.804397   -2.474325    0.000000
     21          1           0        4.742980   -0.956880    0.000000
     22          1           0        4.493449    1.529697    0.000000
     23          1           0        2.129158    2.451393    0.000000
     24          1           0        0.035817    1.992882    0.859585
     25          1           0        0.035817    1.992882   -0.859585
 ---------------------------------------------------------------------

 SCF Done:  E(RM062X) =  -539.730013455     A.U. after   16 cycles

 Excitation energies and oscillator strengths:

 Excited State   1:      Singlet-A'     2.5141 eV  493.16 nm  f=0.0233  <S**2>=0.000
      47 -> 48         0.70524
 This state for optimization and/or second-order correction.
 Total Energy, E(TD-HF/TD-DFT) =  -539.637623181
 Copying the excited state density for this state as the 1-particle RhoCI density.

 The electronic state is 1-A'.
 Alpha  occ. eigenvalues --  -10.79009 -10.73607 -10.73299 -10.72816 -10.72803
 Alpha  occ. eigenvalues --  -10.72237 -10.71653 -10.71030 -10.71011 -10.70238
 Alpha  occ. eigenvalues --  -10.70112 -10.69886 -10.69845 -10.69689  -1.16469
 Alpha  occ. eigenvalues --   -1.12119  -1.06698  -1.06035  -1.01136  -0.99920
 Alpha  occ. eigenvalues --   -0.95528  -0.90767  -0.86397  -0.85799  -0.83403
 Alpha  occ. eigenvalues --   -0.78108  -0.75942  -0.74026  -0.69386  -0.69062
 Alpha  occ. eigenvalues --   -0.68842  -0.68792  -0.68084  -0.64717  -0.64430
 Alpha  occ. eigenvalues --   -0.62220  -0.61207  -0.59496  -0.59319  -0.58968
 Alpha  occ. eigenvalues --   -0.56993  -0.55332  -0.54259  -0.52379  -0.46433
 Alpha  occ. eigenvalues --   -0.45998  -0.43767
 Alpha virt. eigenvalues --   -0.26537  -0.14957  -0.14399  -0.12852  -0.11294
 Alpha virt. eigenvalues --   -0.10110  -0.09211  -0.08074  -0.08050  -0.07482
 Alpha virt. eigenvalues --   -0.07413  -0.07399  -0.05683  -0.05610  -0.05406

 Mulliken charges:
               1
     1  C   -0.104417
     2  C   -0.343578
     3  C   -0.386062
     4  C    0.169391
     5  C    0.121607
     6  C   -0.418904
     7  C   -0.360857
     8  C    0.061614
     9  C   -0.396077
    10  C   -0.063257
    11  C   -0.447037
    12  C    0.477040
    13  C   -0.322979
    14  C    0.325605
    15  H    0.235845
    16  H    0.262779
    17  H    0.242892
    18  H    0.229440
    19  H    0.225489
    20  H    0.246501
    21  H    0.241585
    22  H    0.265675
    23  H    0.242872
    24  H    0.247418
    25  H    0.247418
 Sum of Mulliken charges =   1.00000

 Dipole moment (field-independent basis, Debye):
    X=              0.0030    Y=             -0.0712    Z=              0.0000  Tot=              0.0713
 Quadrupole moment (field-independent basis, Debye-Ang):
   XX=            -32.0411   YY=            -55.8051   ZZ=            -84.4351
   XY=              0.0786   XZ=             -0.0000   YZ=              0.0000

 Normal termination of Gaussian 16 at Tue Aug  2 13:00:24 2022.
