 Gaussian 16, Revision C.01,
 Gaussian 16:  ES64L-G16RevC.01  3-Jul-2019

 ---------------------------------------------------------------
 #n M062X/6-311++G(d,p) TD(NStates=1) EmpiricalDispersion=GD3 SP
 ---------------------------------------------------------------

 -----
 SP_-2
 -----
 Symbolic Z-matrix:
 Charge =  1 Multiplicity = 1

                         Standard orientation:
 ---------------------------------------------------------------------
 Center     Atomic      Atomic             Coordinates (Angstroms)
 Number     Number       Type             X           Y           Z
 ---------------------------------------------------------------------
      1          6           0        0.133013    2.781872    0.000000
      2          6           0       -0.974053    3.619482    0.000000
      3          6           0       -2.230472    3.038718    0.000000
      4          6           0       -2.380834    1.630755    0.000000
      5          6           0       -0.162855   -2.821845    0.000000
      6          6           0        0.994026   -3.608207    0.000000
      7          6           0        2.250213   -3.017865    0.000000
      8          6           0        2.340163   -1.630381    0.000000
      9          6           0        1.274593    0.632184    0.000000
     10          6           0       -1.306017   -0.652336    0.000000
     11          6           0        0.000000    1.384737    0.000000
     12          6           0       -1.263473    0.772763    0.000000
     13          6           0        1.179242   -0.834979    0.000000
     14          6           0       -0.104234   -1.424267    0.000000
     15          1           0        1.134442    3.199805    0.000000
     16          1           0       -0.851900    4.693643    0.000000
     17          1           0       -3.116125    3.660180    0.000000
     18          1           0       -3.380676    1.211159    0.000000
     19          1           0       -2.256975   -1.173139    0.000000
     20          1           0       -1.132472   -3.303232    0.000000
     21          1           0        0.898038   -4.683102    0.000000
     22          1           0        3.142326   -3.627088    0.000000
     23          1           0        3.309443   -1.146721    0.000000
     24          1           0        1.879015    0.972354    0.859585
     25          1           0        1.879015    0.972354   -0.859585
 ---------------------------------------------------------------------

 SCF Done:  E(RM062X) =  -539.755636852     A.U. after   15 cycles

 Excitation energies and oscillator strengths:

 Excited State   1:      Singlet-A'     2.7644 eV  448.50 nm  f=0.0278  <S**2>=0.000
      47 -> 48         0.70446
 This state for optimization and/or second-order correction.
 Total Energy, E(TD-HF/TD-DFT) =  -539.654046165
 Copying the excited state density for this state as the 1-particle RhoCI density.

 The electronic state is 1-A'.
 Alpha  occ. eigenvalues --  -10.77970 -10.73214 -10.73051 -10.72711 -10.72539
 Alpha  occ. eigenvalues --  -10.71626 -10.71252 -10.71065 -10.70903 -10.70839
 Alpha  occ. eigenvalues --  -10.70048 -10.69775 -10.69748 -10.69532  -1.16445
 Alpha  occ. eigenvalues --   -1.12442  -1.06921  -1.05800  -1.01312  -1.00156
 Alpha  occ. eigenvalues --   -0.95760  -0.91021  -0.86491  -0.85807  -0.83773
 Alpha  occ. eigenvalues --   -0.78377  -0.76042  -0.74381  -0.69473  -0.69292
 Alpha  occ. eigenvalues --   -0.68572  -0.68209  -0.68173  -0.64785  -0.64349
 Alpha  occ. eigenvalues --   -0.62907  -0.61745  -0.59896  -0.59654  -0.59085
 Alpha  occ. eigenvalues --   -0.56898  -0.55246  -0.54756  -0.52441  -0.46608
 Alpha  occ. eigenvalues --   -0.46066  -0.44374
 Alpha virt. eigenvalues --   -0.26184  -0.14700  -0.14139  -0.12765  -0.11197
 Alpha virt. eigenvalues --   -0.10091  -0.09227  -0.07992  -0.07985  -0.07481
 Alpha virt. eigenvalues --   -0.07241  -0.07197  -0.05646  -0.05581  -0.05346

 Mulliken charges:
               1
     1  C    0.125118
     2  C   -0.406191
     3  C   -0.468768
     4  C    0.069695
     5  C    0.142789
     6  C   -0.432115
     7  C   -0.417095
     8  C   -0.032911
     9  C   -0.252727
    10  C    0.116329
    11  C   -0.507473
    12  C    0.368093
    13  C   -0.539324
    14  C    0.606704
    15  H    0.235748
    16  H    0.258928
    17  H    0.247306
    18  H    0.228113
    19  H    0.200537
    20  H    0.218297
    21  H    0.248793
    22  H    0.257592
    23  H    0.233068
    24  H    0.249746
    25  H    0.249746
 Sum of Mulliken charges =   1.00000

 Dipole moment (field-independent basis, Debye):
    X=             -0.1390    Y=             -0.0970    Z=             -0.0000  Tot=              0.1695
 Quadrupole moment (field-independent basis, Debye-Ang):
   XX=            -51.3275   YY=            -36.1702   ZZ=            -84.1690
   XY=             -9.8816   XZ=             -0.0000   YZ=              0.0000

 Normal termination of Gaussian 16 at Tue Aug  2 12:37:07 2022.
