 Gaussian 16, Revision C.01,
 Gaussian 16:  ES64L-G16RevC.01  3-Jul-2019

 ---------------------------------------------------------------
 #n M062X/6-311++G(d,p) TD(NStates=1) EmpiricalDispersion=GD3 SP
 ---------------------------------------------------------------

 -----
 SP_-8
 -----
 Symbolic Z-matrix:
 Charge =  1 Multiplicity = 1

                         Standard orientation:
 ---------------------------------------------------------------------
 Center     Atomic      Atomic             Coordinates (Angstroms)
 Number     Number       Type             X           Y           Z
 ---------------------------------------------------------------------
      1          6           0       -0.178882   -2.742973    0.000000
      2          6           0        0.889368   -3.633731    0.000000
      3          6           0        2.168143   -3.119033    0.000000
      4          6           0        2.369601   -1.702042    0.000000
      5          6           0        0.297346    2.663551    0.000000
      6          6           0       -0.687563    3.630017    0.000000
      7          6           0       -2.030518    3.221800    0.000000
      8          6           0       -2.384484    1.846947    0.000000
      9          6           0       -1.374432   -0.637208    0.000000
     10          6           0        1.233182    0.594006    0.000000
     11          6           0       -0.022680   -1.348134    0.000000
     12          6           0        1.266175   -0.821439    0.000000
     13          6           0       -1.353979    0.850367    0.000000
     14          6           0       -0.000000    1.308259    0.000000
     15          1           0       -1.191979   -3.129957    0.000000
     16          1           0        0.701418   -4.698135    0.000000
     17          1           0        3.029639   -3.782224    0.000000
     18          1           0        3.383592   -1.318826    0.000000
     19          1           0        2.139192    1.209832    0.000000
     20          1           0        1.356012    2.944923    0.000000
     21          1           0       -0.421614    4.682944    0.000000
     22          1           0       -2.810104    3.984088    0.000000
     23          1           0       -3.445317    1.568786    0.000000
     24          1           0       -1.944252   -1.061882    0.859585
     25          1           0       -1.944252   -1.061882   -0.859585
 ---------------------------------------------------------------------

 SCF Done:  E(RM062X) =  -539.729242471     A.U. after   15 cycles

 Excitation energies and oscillator strengths:

 Excited State   1:      Singlet-A'     2.8831 eV  430.04 nm  f=0.0309  <S**2>=0.000
      47 -> 48         0.70365
 This state for optimization and/or second-order correction.
 Total Energy, E(TD-HF/TD-DFT) =  -539.623291453
 Copying the excited state density for this state as the 1-particle RhoCI density.

 The electronic state is 1-A'.
 Alpha  occ. eigenvalues --  -10.77672 -10.74274 -10.73125 -10.72462 -10.72266
 Alpha  occ. eigenvalues --  -10.71902 -10.71883 -10.71876 -10.71478 -10.71113
 Alpha  occ. eigenvalues --  -10.70668 -10.70017 -10.69625 -10.69487  -1.16420
 Alpha  occ. eigenvalues --   -1.12299  -1.06738  -1.05460  -1.01232  -1.00082
 Alpha  occ. eigenvalues --   -0.95485  -0.90683  -0.87043  -0.85167  -0.83616
 Alpha  occ. eigenvalues --   -0.78040  -0.75728  -0.74000  -0.69899  -0.69356
 Alpha  occ. eigenvalues --   -0.68104  -0.67739  -0.67514  -0.64392  -0.63904
 Alpha  occ. eigenvalues --   -0.62589  -0.61510  -0.59959  -0.59503  -0.58807
 Alpha  occ. eigenvalues --   -0.56400  -0.55372  -0.54691  -0.52251  -0.46641
 Alpha  occ. eigenvalues --   -0.45970  -0.44488
 Alpha virt. eigenvalues --   -0.25846  -0.14897  -0.14225  -0.12965  -0.11223
 Alpha virt. eigenvalues --   -0.10151  -0.09244  -0.08014  -0.07992  -0.07522
 Alpha virt. eigenvalues --   -0.07204  -0.07107  -0.05737  -0.05601  -0.05310

 Mulliken charges:
               1
     1  C    0.275684
     2  C   -0.312873
     3  C   -0.468297
     4  C   -0.336651
     5  C    0.121852
     6  C   -0.437165
     7  C   -0.380353
     8  C   -0.203553
     9  C   -0.585252
    10  C   -0.097982
    11  C   -0.316600
    12  C    0.541282
    13  C   -0.507342
    14  C    1.060745
    15  H    0.240897
    16  H    0.257119
    17  H    0.250225
    18  H    0.232936
    19  H    0.187868
    20  H    0.203598
    21  H    0.259201
    22  H    0.254622
    23  H    0.255066
    24  H    0.252487
    25  H    0.252487
 Sum of Mulliken charges =   1.00000

 Dipole moment (field-independent basis, Debye):
    X=              0.1105    Y=              0.2888    Z=             -0.0000  Tot=              0.3092
 Quadrupole moment (field-independent basis, Debye-Ang):
   XX=            -51.8984   YY=            -34.9309   ZZ=            -84.4540
   XY=             -9.7635   XZ=              0.0000   YZ=              0.0000

 Normal termination of Gaussian 16 at Tue Aug  2 11:57:19 2022.
