 Gaussian 16, Revision C.01,
 Gaussian 16:  ES64L-G16RevC.01  3-Jul-2019

 ---------------------------------------------------------------
 #n M062X/6-311++G(d,p) TD(NStates=1) EmpiricalDispersion=GD3 SP
 ---------------------------------------------------------------

 -----
 SP_-6
 -----
 Symbolic Z-matrix:
 Charge =  1 Multiplicity = 1

                         Standard orientation:
 ---------------------------------------------------------------------
 Center     Atomic      Atomic             Coordinates (Angstroms)
 Number     Number       Type             X           Y           Z
 ---------------------------------------------------------------------
      1          6           0        0.366142    2.650593    0.000000
      2          6           0       -0.574041    3.677980    0.000000
      3          6           0       -1.905410    3.294154    0.000000
      4          6           0       -2.299646    1.900853    0.000000
      5          6           0       -0.356076   -2.783404    0.000000
      6          6           0        0.727343   -3.651697    0.000000
      7          6           0        2.034741   -3.173418    0.000000
      8          6           0        2.244471   -1.800422    0.000000
      9          6           0        1.259789    0.516815    0.000000
     10          6           0       -1.403799   -0.586833    0.000000
     11          6           0        0.000000    1.296276    0.000000
     12          6           0       -1.324172    0.849847    0.000000
     13          6           0        1.139142   -0.930056    0.000000
     14          6           0       -0.203451   -1.395299    0.000000
     15          1           0        1.442361    2.872362    0.000000
     16          1           0       -0.267646    4.724149    0.000000
     17          1           0       -2.685469    4.053990    0.000000
     18          1           0       -3.372967    1.673571    0.000000
     19          1           0       -2.362000   -1.121704    0.000000
     20          1           0       -1.360777   -3.186562    0.000000
     21          1           0        0.541210   -4.711224    0.000000
     22          1           0        2.865062   -3.866246    0.000000
     23          1           0        3.247569   -1.391245    0.000000
     24          1           0        1.861230    0.880288    0.859585
     25          1           0        1.861230    0.880288   -0.859585
 ---------------------------------------------------------------------

 SCF Done:  E(RM062X) =  -539.729469400     A.U. after   15 cycles

 Excitation energies and oscillator strengths:

 Excited State   1:      Singlet-A'     2.6103 eV  474.99 nm  f=0.0264  <S**2>=0.000
      47 -> 48         0.70462
 This state for optimization and/or second-order correction.
 Total Energy, E(TD-HF/TD-DFT) =  -539.633543966
 Copying the excited state density for this state as the 1-particle RhoCI density.

 The electronic state is 1-A'.
 Alpha  occ. eigenvalues --  -10.78779 -10.73491 -10.73157 -10.72917 -10.72766
 Alpha  occ. eigenvalues --  -10.72431 -10.71157 -10.70988 -10.70946 -10.70797
 Alpha  occ. eigenvalues --  -10.70315 -10.70193 -10.69680 -10.69316  -1.16440
 Alpha  occ. eigenvalues --   -1.12283  -1.06749  -1.05879  -1.01272  -1.00035
 Alpha  occ. eigenvalues --   -0.95530  -0.90763  -0.86817  -0.85399  -0.83514
 Alpha  occ. eigenvalues --   -0.78153  -0.75934  -0.74081  -0.69462  -0.69250
 Alpha  occ. eigenvalues --   -0.68719  -0.68313  -0.67896  -0.64746  -0.64334
 Alpha  occ. eigenvalues --   -0.62385  -0.61215  -0.59745  -0.59342  -0.58972
 Alpha  occ. eigenvalues --   -0.56740  -0.55349  -0.54423  -0.52359  -0.46584
 Alpha  occ. eigenvalues --   -0.46033  -0.43969
 Alpha virt. eigenvalues --   -0.26356  -0.14929  -0.14320  -0.12786  -0.11270
 Alpha virt. eigenvalues --   -0.10126  -0.09223  -0.08062  -0.08029  -0.07518
 Alpha virt. eigenvalues --   -0.07339  -0.07331  -0.05693  -0.05599  -0.05374

 Mulliken charges:
               1
     1  C    0.233151
     2  C   -0.388224
     3  C   -0.455462
     4  C    0.065651
     5  C    0.145708
     6  C   -0.349847
     7  C   -0.339174
     8  C   -0.300509
     9  C   -0.407384
    10  C   -0.133625
    11  C   -0.037823
    12  C    0.068551
    13  C   -0.406377
    14  C    0.632565
    15  H    0.244215
    16  H    0.264694
    17  H    0.243992
    18  H    0.252601
    19  H    0.224259
    20  H    0.205464
    21  H    0.248794
    22  H    0.259692
    23  H    0.226898
    24  H    0.251096
    25  H    0.251096
 Sum of Mulliken charges =   1.00000

 Dipole moment (field-independent basis, Debye):
    X=             -0.0938    Y=             -0.0736    Z=             -0.0000  Tot=              0.1193
 Quadrupole moment (field-independent basis, Debye-Ang):
   XX=            -52.6472   YY=            -34.9588   ZZ=            -84.3919
   XY=             -8.4448   XZ=             -0.0000   YZ=             -0.0000

 Normal termination of Gaussian 16 at Tue Aug  2 12:15:03 2022.
