 Gaussian 16, Revision C.01,
 Gaussian 16:  ES64L-G16RevC.01  3-Jul-2019

 ---------------------------------------------------------------
 #n M062X/6-311++G(d,p) TD(NStates=1) EmpiricalDispersion=GD3 SP
 ---------------------------------------------------------------

 ----
 SP_6
 ----
 Symbolic Z-matrix:
 Charge =  1 Multiplicity = 1

                         Standard orientation:
 ---------------------------------------------------------------------
 Center     Atomic      Atomic             Coordinates (Angstroms)
 Number     Number       Type             X           Y           Z
 ---------------------------------------------------------------------
      1          6           0       -2.281947   -1.786767    0.000000
      2          6           0       -2.062865   -3.161610    0.000000
      3          6           0       -0.755564   -3.642018    0.000000
      4          6           0        0.320230   -2.768206    0.000000
      5          6           0        2.326104    1.837416    0.000000
      6          6           0        1.989032    3.238878    0.000000
      7          6           0        0.672832    3.665969    0.000000
      8          6           0       -0.307378    2.679292    0.000000
      9          6           0       -1.279026    0.550096    0.000000
     10          6           0        1.365126   -0.599338    0.000000
     11          6           0       -1.181933   -0.905710    0.000000
     12          6           0        0.156229   -1.384794    0.000000
     13          6           0        0.000000    1.311740    0.000000
     14          6           0        1.312478    0.833283    0.000000
     15          1           0       -3.289981   -1.389953    0.000000
     16          1           0       -2.892156   -3.856093    0.000000
     17          1           0       -0.567288   -4.702176    0.000000
     18          1           0        1.329211   -3.160880    0.000000
     19          1           0        2.312107   -1.149901    0.000000
     20          1           0        3.383960    1.563895    0.000000
     21          1           0        2.794941    3.969061    0.000000
     22          1           0        0.404978    4.719689    0.000000
     23          1           0       -1.367467    2.949200    0.000000
     24          1           0       -1.874107    0.923890    0.859585
     25          1           0       -1.874107    0.923890   -0.859585
 ---------------------------------------------------------------------

 SCF Done:  E(RM062X) =  -539.735544838     A.U. after   15 cycles

 Excitation energies and oscillator strengths:

 Excited State   1:      Singlet-A'     2.6746 eV  463.57 nm  f=0.0274  <S**2>=0.000
      47 -> 48         0.70446
 This state for optimization and/or second-order correction.
 Total Energy, E(TD-HF/TD-DFT) =  -539.637256123
 Copying the excited state density for this state as the 1-particle RhoCI density.

 The electronic state is 1-A'.
 Alpha  occ. eigenvalues --  -10.78518 -10.73309 -10.73244 -10.72935 -10.72621
 Alpha  occ. eigenvalues --  -10.72242 -10.71226 -10.70959 -10.70950 -10.70879
 Alpha  occ. eigenvalues --  -10.70316 -10.70197 -10.69609 -10.69333  -1.16436
 Alpha  occ. eigenvalues --   -1.12345  -1.06798  -1.05818  -1.01301  -1.00080
 Alpha  occ. eigenvalues --   -0.95587  -0.90817  -0.86840  -0.85392  -0.83604
 Alpha  occ. eigenvalues --   -0.78204  -0.75945  -0.74158  -0.69471  -0.69335
 Alpha  occ. eigenvalues --   -0.68628  -0.68170  -0.67918  -0.64741  -0.64301
 Alpha  occ. eigenvalues --   -0.62531  -0.61354  -0.59803  -0.59447  -0.58988
 Alpha  occ. eigenvalues --   -0.56713  -0.55339  -0.54549  -0.52371  -0.46616
 Alpha  occ. eigenvalues --   -0.46043  -0.44122
 Alpha virt. eigenvalues --   -0.26265  -0.14860  -0.14264  -0.12787  -0.11246
 Alpha virt. eigenvalues --   -0.10122  -0.09227  -0.08038  -0.08017  -0.07514
 Alpha virt. eigenvalues --   -0.07300  -0.07281  -0.05687  -0.05591  -0.05359

 Mulliken charges:
               1
     1  C   -0.309485
     2  C   -0.352432
     3  C   -0.362625
     4  C    0.147431
     5  C    0.066643
     6  C   -0.472909
     7  C   -0.386830
     8  C    0.236197
     9  C   -0.361469
    10  C   -0.080511
    11  C   -0.377754
    12  C    0.669543
    13  C   -0.088117
    14  C    0.013567
    15  H    0.227169
    16  H    0.259282
    17  H    0.250308
    18  H    0.204712
    19  H    0.217624
    20  H    0.246843
    21  H    0.245325
    22  H    0.262826
    23  H    0.241801
    24  H    0.251430
    25  H    0.251430
 Sum of Mulliken charges =   1.00000

 Dipole moment (field-independent basis, Debye):
    X=              0.1066    Y=             -0.1050    Z=              0.0000  Tot=              0.1497
 Quadrupole moment (field-independent basis, Debye-Ang):
   XX=            -52.3945   YY=            -35.1143   ZZ=            -84.3371
   XY=              8.8556   XZ=              0.0000   YZ=              0.0000

 Normal termination of Gaussian 16 at Tue Aug  2 13:21:21 2022.
