 Gaussian 16, Revision C.01,
 Gaussian 16:  ES64L-G16RevC.01  3-Jul-2019

 ---------------------------------------------------------------
 #n M062X/6-311++G(d,p) TD(NStates=1) EmpiricalDispersion=GD3 SP
 ---------------------------------------------------------------

 -----
 SP_-2
 -----
 Symbolic Z-matrix:
 Charge =  1 Multiplicity = 1

                         Standard orientation:
 ---------------------------------------------------------------------
 Center     Atomic      Atomic             Coordinates (Angstroms)
 Number     Number       Type             X           Y           Z
 ---------------------------------------------------------------------
      1          6           0        2.583809   -1.346246    0.000000
      2          6           0        3.746287   -0.550834    0.000000
      3          6           0        3.657817    0.833890    0.000000
      4          6           0        2.380632    1.419783    0.000000
      5          6           0       -2.305811    1.428394    0.000000
      6          6           0       -3.609347    0.927072    0.000000
      7          6           0       -3.776198   -0.459221    0.000000
      8          6           0       -2.661682   -1.340312    0.000000
      9          6           0       -0.007441   -1.606529    0.000000
     10          6           0        0.000000    1.276089    0.000000
     11          6           0        1.272537   -0.780372    0.000000
     12          6           0        1.231319    0.623953    0.000000
     13          6           0       -1.312256   -0.839769    0.000000
     14          6           0       -1.204236    0.571135    0.000000
     15          1           0        2.700908   -2.430626    0.000000
     16          1           0        4.712979   -1.033758    0.000000
     17          1           0        4.551180    1.455933    0.000000
     18          1           0        2.273336    2.503374    0.000000
     19          1           0       -0.039802    2.347593    0.000000
     20          1           0       -2.121908    2.509214    0.000000
     21          1           0       -4.466364    1.601780    0.000000
     22          1           0       -4.779450   -0.875390    0.000000
     23          1           0       -2.855401   -2.421733    0.000000
     24          1           0        0.025966   -2.299296    0.859585
     25          1           0        0.025966   -2.299296   -0.859585
 ---------------------------------------------------------------------

 SCF Done:  E(RM062X) =  -539.749942591     A.U. after   15 cycles

 Excitation energies and oscillator strengths:

 Excited State   1:      Singlet-A'     3.0483 eV  406.73 nm  f=0.0326  <S**2>=0.000
      47 -> 48         0.70277
 This state for optimization and/or second-order correction.
 Total Energy, E(TD-HF/TD-DFT) =  -539.637920100
 Copying the excited state density for this state as the 1-particle RhoCI density.

 The electronic state is 1-A'.
 Alpha  occ. eigenvalues --  -10.76309 -10.74263 -10.73865 -10.71984 -10.71800
 Alpha  occ. eigenvalues --  -10.71736 -10.71651 -10.71497 -10.71495 -10.71251
 Alpha  occ. eigenvalues --  -10.71190 -10.70562 -10.69885 -10.69838  -1.16398
 Alpha  occ. eigenvalues --   -1.12138  -1.06717  -1.05258  -1.01038  -1.00074
 Alpha  occ. eigenvalues --   -0.95496  -0.90793  -0.86489  -0.85813  -0.83579
 Alpha  occ. eigenvalues --   -0.78029  -0.75566  -0.74021  -0.69944  -0.69142
 Alpha  occ. eigenvalues --   -0.68028  -0.67835  -0.67502  -0.64099  -0.63619
 Alpha  occ. eigenvalues --   -0.63215  -0.61965  -0.60363  -0.59405  -0.58870
 Alpha  occ. eigenvalues --   -0.56792  -0.55175  -0.54756  -0.52217  -0.46580
 Alpha  occ. eigenvalues --   -0.45814  -0.44815
 Alpha virt. eigenvalues --   -0.25557  -0.14879  -0.14163  -0.13051  -0.11168
 Alpha virt. eigenvalues --   -0.10108  -0.09248  -0.07987  -0.07932  -0.07481
 Alpha virt. eigenvalues --   -0.07125  -0.06936  -0.05727  -0.05622  -0.05296

 Mulliken charges:
               1
     1  C    0.039427
     2  C   -0.350388
     3  C   -0.491886
     4  C    0.045059
     5  C    0.127456
     6  C   -0.477951
     7  C   -0.364288
     8  C   -0.103902
     9  C   -0.456131
    10  C   -0.063075
    11  C   -0.402123
    12  C    0.599429
    13  C   -0.421400
    14  C    0.717959
    15  H    0.244825
    16  H    0.250716
    17  H    0.254026
    18  H    0.240107
    19  H    0.110914
    20  H    0.238227
    21  H    0.257628
    22  H    0.250865
    23  H    0.252371
    24  H    0.251068
    25  H    0.251068
 Sum of Mulliken charges =   1.00000

 Dipole moment (field-independent basis, Debye):
    X=             -0.0836    Y=              0.2680    Z=              0.0000  Tot=              0.2807
 Quadrupole moment (field-independent basis, Debye-Ang):
   XX=            -30.0507   YY=            -56.3350   ZZ=            -84.4407
   XY=             -0.1512   XZ=             -0.0000   YZ=              0.0000

 Normal termination of Gaussian 16 at Tue Aug  2 12:30:30 2022.
