 Gaussian 16, Revision C.01,
 Gaussian 16:  ES64L-G16RevC.01  3-Jul-2019

 ---------------------------------------------------------------
 #n M062X/6-311++G(d,p) TD(NStates=1) EmpiricalDispersion=GD3 SP
 ---------------------------------------------------------------

 ------
 SP_-10
 ------
 Symbolic Z-matrix:
 Charge =  1 Multiplicity = 1

                         Standard orientation:
 ---------------------------------------------------------------------
 Center     Atomic      Atomic             Coordinates (Angstroms)
 Number     Number       Type             X           Y           Z
 ---------------------------------------------------------------------
      1          6           0       -0.350999   -2.758296    0.000000
      2          6           0        0.688681   -3.688323    0.000000
      3          6           0        1.989647   -3.240694    0.000000
      4          6           0        2.236281   -1.831913    0.000000
      5          6           0        0.533887    2.537959    0.000000
      6          6           0       -0.273282    3.666790    0.000000
      7          6           0       -1.676622    3.453883    0.000000
      8          6           0       -2.273970    2.126769    0.000000
      9          6           0       -1.505385   -0.562392    0.000000
     10          6           0        1.186034    0.474623    0.000000
     11          6           0       -0.164626   -1.359893    0.000000
     12          6           0        1.155268   -0.930120    0.000000
     13          6           0       -1.406469    0.944852    0.000000
     14          6           0        0.000000    1.246735    0.000000
     15          1           0       -1.369635   -3.127045    0.000000
     16          1           0        0.449553   -4.739537    0.000000
     17          1           0        2.823315   -3.942061    0.000000
     18          1           0        3.257467   -1.472662    0.000000
     19          1           0        2.116496    1.061093    0.000000
     20          1           0        1.650291    2.622004    0.000000
     21          1           0        0.158031    4.678846    0.000000
     22          1           0       -2.333235    4.343323    0.000000
     23          1           0       -3.394239    2.051767    0.000000
     24          1           0       -2.094350   -0.977800    0.859585
     25          1           0       -2.094350   -0.977800   -0.859585
 ---------------------------------------------------------------------

 SCF Done:  E(RM062X) =  -539.694709110     A.U. after   15 cycles

 Excitation energies and oscillator strengths:

 Excited State   1:      Singlet-A'     3.0107 eV  411.81 nm  f=0.0323  <S**2>=0.000
      47 -> 48         0.70284
 This state for optimization and/or second-order correction.
 Total Energy, E(TD-HF/TD-DFT) =  -539.584066980
 Copying the excited state density for this state as the 1-particle RhoCI density.

 The electronic state is 1-A'.
 Alpha  occ. eigenvalues --  -10.77091 -10.75289 -10.73295 -10.72964 -10.72786
 Alpha  occ. eigenvalues --  -10.72741 -10.72338 -10.71930 -10.71753 -10.71729
 Alpha  occ. eigenvalues --  -10.70513 -10.70210 -10.69969 -10.69513  -1.16417
 Alpha  occ. eigenvalues --   -1.12011  -1.06424  -1.05123  -1.00993  -0.99899
 Alpha  occ. eigenvalues --   -0.95127  -0.90297  -0.87160  -0.84984  -0.83341
 Alpha  occ. eigenvalues --   -0.77627  -0.75431  -0.73448  -0.70415  -0.69198
 Alpha  occ. eigenvalues --   -0.67675  -0.67330  -0.66999  -0.63944  -0.63471
 Alpha  occ. eigenvalues --   -0.61963  -0.61308  -0.59983  -0.59246  -0.58415
 Alpha  occ. eigenvalues --   -0.56094  -0.55427  -0.54304  -0.52016  -0.46537
 Alpha  occ. eigenvalues --   -0.45787  -0.44580
 Alpha virt. eigenvalues --   -0.25479  -0.15251  -0.14332  -0.13225  -0.11279
 Alpha virt. eigenvalues --   -0.10203  -0.09260  -0.08053  -0.07949  -0.07541
 Alpha virt. eigenvalues --   -0.07219  -0.06974  -0.05811  -0.05649  -0.05293

 Mulliken charges:
               1
     1  C    0.273759
     2  C   -0.288893
     3  C   -0.493304
     4  C   -0.291686
     5  C    0.110437
     6  C   -0.540796
     7  C   -0.323886
     8  C   -0.377317
     9  C   -0.687155
    10  C   -0.158507
    11  C   -0.058918
    12  C    0.416012
    13  C   -0.320465
    14  C    1.088699
    15  H    0.241965
    16  H    0.253200
    17  H    0.251818
    18  H    0.237150
    19  H    0.146765
    20  H    0.219566
    21  H    0.268366
    22  H    0.255972
    23  H    0.274901
    24  H    0.251159
    25  H    0.251159
 Sum of Mulliken charges =   1.00000

 Dipole moment (field-independent basis, Debye):
    X=              0.1063    Y=              0.5086    Z=              0.0000  Tot=              0.5196
 Quadrupole moment (field-independent basis, Debye-Ang):
   XX=            -53.1629   YY=            -32.8373   ZZ=            -84.8232
   XY=             -8.6138   XZ=              0.0000   YZ=             -0.0000

 Normal termination of Gaussian 16 at Tue Aug  2 11:41:40 2022.
