 Gaussian 16, Revision C.01,
 Gaussian 16:  ES64L-G16RevC.01  3-Jul-2019

 ---------------------------------------------------------------
 #n M062X/6-311++G(d,p) TD(NStates=1) EmpiricalDispersion=GD3 SP
 ---------------------------------------------------------------

 ------
 SP_-10
 ------
 Symbolic Z-matrix:
 Charge =  1 Multiplicity = 1

                         Standard orientation:
 ---------------------------------------------------------------------
 Center     Atomic      Atomic             Coordinates (Angstroms)
 Number     Number       Type             X           Y           Z
 ---------------------------------------------------------------------
      1          6           0       -0.235867   -2.705207    0.000000
      2          6           0        0.786597   -3.648913    0.000000
      3          6           0        2.085652   -3.190650    0.000000
      4          6           0        2.352706   -1.775077    0.000000
      5          6           0        0.355173    2.626534    0.000000
      6          6           0       -0.580931    3.635714    0.000000
      7          6           0       -1.945229    3.283963    0.000000
      8          6           0       -2.368591    1.920911    0.000000
      9          6           0       -1.386717   -0.610466    0.000000
     10          6           0        1.242819    0.574727    0.000000
     11          6           0       -0.021580   -1.320006    0.000000
     12          6           0        1.283722   -0.845205    0.000000
     13          6           0       -1.376117    0.878742    0.000000
     14          6           0        0.000000    1.286192    0.000000
     15          1           0       -1.268792   -3.041237    0.000000
     16          1           0        0.545000   -4.704513    0.000000
     17          1           0        2.918463   -3.892765    0.000000
     18          1           0        3.386432   -1.442835    0.000000
     19          1           0        2.144753    1.214344    0.000000
     20          1           0        1.431055    2.855863    0.000000
     21          1           0       -0.267951    4.677497    0.000000
     22          1           0       -2.688922    4.087253    0.000000
     23          1           0       -3.446560    1.694845    0.000000
     24          1           0       -1.951650   -1.058007    0.859585
     25          1           0       -1.951650   -1.058007   -0.859585
 ---------------------------------------------------------------------

 SCF Done:  E(RM062X) =  -539.709805383     A.U. after   16 cycles

 Excitation energies and oscillator strengths:

 Excited State   1:      Singlet-A'     2.8613 eV  433.31 nm  f=0.0309  <S**2>=0.000
      47 -> 48         0.70367
 This state for optimization and/or second-order correction.
 Total Energy, E(TD-HF/TD-DFT) =  -539.604654021
 Copying the excited state density for this state as the 1-particle RhoCI density.

 The electronic state is 1-A'.
 Alpha  occ. eigenvalues --  -10.77968 -10.74514 -10.73079 -10.72605 -10.72390
 Alpha  occ. eigenvalues --  -10.72167 -10.72149 -10.72068 -10.71858 -10.71107
 Alpha  occ. eigenvalues --  -10.70607 -10.70151 -10.69667 -10.69366  -1.16416
 Alpha  occ. eigenvalues --   -1.12233  -1.06644  -1.05404  -1.01216  -1.00020
 Alpha  occ. eigenvalues --   -0.95350  -0.90501  -0.87223  -0.84921  -0.83517
 Alpha  occ. eigenvalues --   -0.77868  -0.75647  -0.73811  -0.70019  -0.69347
 Alpha  occ. eigenvalues --   -0.68021  -0.67574  -0.67335  -0.64312  -0.63777
 Alpha  occ. eigenvalues --   -0.62248  -0.61264  -0.59842  -0.59421  -0.58658
 Alpha  occ. eigenvalues --   -0.56122  -0.55427  -0.54587  -0.52177  -0.46642
 Alpha  occ. eigenvalues --   -0.45951  -0.44384
 Alpha virt. eigenvalues --   -0.25824  -0.15012  -0.14309  -0.13027  -0.11259
 Alpha virt. eigenvalues --   -0.10186  -0.09248  -0.08034  -0.08015  -0.07552
 Alpha virt. eigenvalues --   -0.07229  -0.07131  -0.05777  -0.05611  -0.05307

 Mulliken charges:
               1
     1  C    0.305690
     2  C   -0.295583
     3  C   -0.466520
     4  C   -0.427989
     5  C    0.077859
     6  C   -0.476597
     7  C   -0.354942
     8  C   -0.266658
     9  C   -0.681487
    10  C   -0.177207
    11  C   -0.052444
    12  C    0.500257
    13  C   -0.485453
    14  C    1.134390
    15  H    0.242454
    16  H    0.258563
    17  H    0.250427
    18  H    0.237457
    19  H    0.201199
    20  H    0.193986
    21  H    0.262014
    22  H    0.255802
    23  H    0.260410
    24  H    0.252186
    25  H    0.252186
 Sum of Mulliken charges =   1.00000

 Dipole moment (field-independent basis, Debye):
    X=              0.0914    Y=              0.3405    Z=              0.0000  Tot=              0.3526
 Quadrupole moment (field-independent basis, Debye-Ang):
   XX=            -52.2846   YY=            -34.4149   ZZ=            -84.6010
   XY=             -9.4401   XZ=              0.0000   YZ=              0.0000

 Normal termination of Gaussian 16 at Tue Aug  2 11:45:00 2022.
