 Gaussian 16, Revision C.01,
 Gaussian 16:  ES64L-G16RevC.01  3-Jul-2019

 ---------------------------------------------------------------
 #n M062X/6-311++G(d,p) TD(NStates=1) EmpiricalDispersion=GD3 SP
 ---------------------------------------------------------------

 ----
 SP_4
 ----
 Symbolic Z-matrix:
 Charge =  1 Multiplicity = 1

                         Standard orientation:
 ---------------------------------------------------------------------
 Center     Atomic      Atomic             Coordinates (Angstroms)
 Number     Number       Type             X           Y           Z
 ---------------------------------------------------------------------
      1          6           0       -2.296217   -1.712769    0.000000
      2          6           0       -2.148097   -3.094510    0.000000
      3          6           0       -0.865817   -3.631178    0.000000
      4          6           0        0.256201   -2.804574    0.000000
      5          6           0        2.346241    1.762760    0.000000
      6          6           0        2.075795    3.167613    0.000000
      7          6           0        0.779594    3.652822    0.000000
      8          6           0       -0.248362    2.719072    0.000000
      9          6           0       -1.267707    0.575435    0.000000
     10          6           0        1.354250   -0.622933    0.000000
     11          6           0       -1.161373   -0.881001    0.000000
     12          6           0        0.152380   -1.410838    0.000000
     13          6           0        0.000000    1.339356    0.000000
     14          6           0        1.295415    0.807578    0.000000
     15          1           0       -3.282490   -1.264683    0.000000
     16          1           0       -3.011198   -3.745075    0.000000
     17          1           0       -0.726021   -4.699532    0.000000
     18          1           0        1.243526   -3.248545    0.000000
     19          1           0        2.306995   -1.151771    0.000000
     20          1           0        3.385472    1.436653    0.000000
     21          1           0        2.911749    3.858714    0.000000
     22          1           0        0.566380    4.716187    0.000000
     23          1           0       -1.289918    3.041624    0.000000
     24          1           0       -1.869156    0.927716    0.859585
     25          1           0       -1.869156    0.927716   -0.859585
 ---------------------------------------------------------------------

 SCF Done:  E(RM062X) =  -539.745630856     A.U. after   15 cycles

 Excitation energies and oscillator strengths:

 Excited State   1:      Singlet-A'     2.6942 eV  460.19 nm  f=0.0271  <S**2>=0.000
      47 -> 48         0.70457
 This state for optimization and/or second-order correction.
 Total Energy, E(TD-HF/TD-DFT) =  -539.646620872
 Copying the excited state density for this state as the 1-particle RhoCI density.

 The electronic state is 1-A'.
 Alpha  occ. eigenvalues --  -10.78342 -10.73186 -10.73078 -10.72929 -10.72649
 Alpha  occ. eigenvalues --  -10.71984 -10.71125 -10.71115 -10.70886 -10.70778
 Alpha  occ. eigenvalues --  -10.70121 -10.70005 -10.69653 -10.69426  -1.16443
 Alpha  occ. eigenvalues --   -1.12379  -1.06855  -1.05851  -1.01296  -1.00105
 Alpha  occ. eigenvalues --   -0.95679  -0.90923  -0.86649  -0.85612  -0.83674
 Alpha  occ. eigenvalues --   -0.78294  -0.76008  -0.74268  -0.69385  -0.69351
 Alpha  occ. eigenvalues --   -0.68654  -0.68278  -0.68060  -0.64785  -0.64366
 Alpha  occ. eigenvalues --   -0.62676  -0.61530  -0.59804  -0.59546  -0.59044
 Alpha  occ. eigenvalues --   -0.56847  -0.55296  -0.54619  -0.52415  -0.46592
 Alpha  occ. eigenvalues --   -0.46059  -0.44198
 Alpha virt. eigenvalues --   -0.26273  -0.14783  -0.14214  -0.12774  -0.11227
 Alpha virt. eigenvalues --   -0.10104  -0.09225  -0.08014  -0.08008  -0.07491
 Alpha virt. eigenvalues --   -0.07289  -0.07261  -0.05663  -0.05586  -0.05361

 Mulliken charges:
               1
     1  C   -0.220975
     2  C   -0.368905
     3  C   -0.392388
     4  C    0.181301
     5  C    0.128121
     6  C   -0.472174
     7  C   -0.387829
     8  C    0.145874
     9  C   -0.315594
    10  C   -0.034686
    11  C   -0.385133
    12  C    0.566981
    13  C   -0.204237
    14  C    0.111084
    15  H    0.228847
    16  H    0.258881
    17  H    0.248749
    18  H    0.213201
    19  H    0.211840
    20  H    0.240827
    21  H    0.245182
    22  H    0.261578
    23  H    0.239116
    24  H    0.250170
    25  H    0.250170
 Sum of Mulliken charges =   1.00000

 Dipole moment (field-independent basis, Debye):
    X=              0.1165    Y=             -0.0913    Z=              0.0000  Tot=              0.1480
 Quadrupole moment (field-independent basis, Debye-Ang):
   XX=            -51.9988   YY=            -35.5726   ZZ=            -84.2531
   XY=              9.2097   XZ=             -0.0000   YZ=             -0.0000

 Normal termination of Gaussian 16 at Tue Aug  2 13:09:11 2022.
