 Gaussian 16, Revision C.01,
 Gaussian 16:  ES64L-G16RevC.01  3-Jul-2019

 ---------------------------------------------------------------
 #n M062X/6-311++G(d,p) TD(NStates=1) EmpiricalDispersion=GD3 SP
 ---------------------------------------------------------------

 ----
 SP_0
 ----
 Symbolic Z-matrix:
 Charge =  1 Multiplicity = 1

                         Standard orientation:
 ---------------------------------------------------------------------
 Center     Atomic      Atomic             Coordinates (Angstroms)
 Number     Number       Type             X           Y           Z
 ---------------------------------------------------------------------
      1          6           0        0.000000    2.388655   -1.373905
      2          6           0        0.000000    3.653508   -0.805463
      3          6           0        0.000000    3.723861    0.580356
      4          6           0        0.000000    2.559156    1.394064
      5          6           0       -0.000000   -2.559156    1.394064
      6          6           0       -0.000000   -3.723861    0.580356
      7          6           0       -0.000000   -3.653508   -0.805463
      8          6           0       -0.000000   -2.388655   -1.373905
      9          6           0       -0.000000    0.000000   -1.330843
     10          6           0        0.000000   -0.000000    1.551715
     11          6           0        0.000000    1.238055   -0.570539
     12          6           0        0.000000    1.253471    0.837330
     13          6           0       -0.000000   -1.238055   -0.570539
     14          6           0       -0.000000   -1.253471    0.837330
     15          1           0        0.000000    2.256071   -2.457121
     16          1           0        0.000000    4.548753   -1.417163
     17          1           0        0.000000    4.689262    1.066875
     18          1           0        0.000000    2.683550    2.476585
     19          1           0        0.000000   -0.000000    2.640792
     20          1           0       -0.000000   -2.683550    2.476585
     21          1           0       -0.000000   -4.689262    1.066875
     22          1           0       -0.000000   -4.548753   -1.417163
     23          1           0       -0.000000   -2.256071   -2.457121
     24          1           0        0.859585   -0.000000   -2.023261
     25          1           0       -0.859585    0.000000   -2.023261
 ---------------------------------------------------------------------

 SCF Done:  E(RM062X) =  -539.740948554     A.U. after   15 cycles

 Excitation energies and oscillator strengths:

 Excited State   1:      Singlet-A1     2.5859 eV  479.46 nm  f=0.0244  <S**2>=0.000
      47 -> 48         0.70512
 This state for optimization and/or second-order correction.
 Total Energy, E(TD-HF/TD-DFT) =  -539.645917912
 Copying the excited state density for this state as the 1-particle RhoCI density.

 The electronic state is 1-A1.
 Alpha  occ. eigenvalues --  -10.78719 -10.73219 -10.73218 -10.72849 -10.72849
 Alpha  occ. eigenvalues --  -10.71772 -10.71772 -10.70978 -10.70978 -10.70338
 Alpha  occ. eigenvalues --  -10.69810 -10.69810 -10.69800 -10.69800  -1.16459
 Alpha  occ. eigenvalues --   -1.12242  -1.06790  -1.05995  -1.01199  -1.00005
 Alpha  occ. eigenvalues --   -0.95640  -0.90881  -0.86337  -0.85897  -0.83544
 Alpha  occ. eigenvalues --   -0.78228  -0.76010  -0.74181  -0.69351  -0.69152
 Alpha  occ. eigenvalues --   -0.68780  -0.68657  -0.68182  -0.64784  -0.64454
 Alpha  occ. eigenvalues --   -0.62442  -0.61408  -0.59535  -0.59525  -0.59030
 Alpha  occ. eigenvalues --   -0.57000  -0.55301  -0.54430  -0.52420  -0.46477
 Alpha  occ. eigenvalues --   -0.46041  -0.43959
 Alpha virt. eigenvalues --   -0.26456  -0.14844  -0.14304  -0.12811  -0.11259
 Alpha virt. eigenvalues --   -0.10099  -0.09216  -0.08037  -0.08029  -0.07472
 Alpha virt. eigenvalues --   -0.07365  -0.07344  -0.05662  -0.05597  -0.05391

 Mulliken charges:
               1
     1  C   -0.040382
     2  C   -0.361785
     3  C   -0.416581
     4  C    0.175905
     5  C    0.175905
     6  C   -0.416581
     7  C   -0.361785
     8  C   -0.040382
     9  C   -0.366130
    10  C   -0.066274
    11  C   -0.354937
    12  C    0.379074
    13  C   -0.354937
    14  C    0.379074
    15  H    0.237467
    16  H    0.262355
    17  H    0.243251
    18  H    0.234771
    19  H    0.219113
    20  H    0.234771
    21  H    0.243251
    22  H    0.262355
    23  H    0.237467
    24  H    0.247507
    25  H    0.247507
 Sum of Mulliken charges =   1.00000

 Dipole moment (field-independent basis, Debye):
    X=             -0.0000    Y=             -0.0000    Z=              0.0993  Tot=              0.0993
 Quadrupole moment (field-independent basis, Debye-Ang):
   XX=            -84.3188   YY=            -31.8691   ZZ=            -55.9259
   XY=              0.0000   XZ=              0.0000   YZ=             -0.0000

 Normal termination of Gaussian 16 at Tue Aug  2 12:47:39 2022.
