 Gaussian 16, Revision C.01,
 Gaussian 16:  ES64L-G16RevC.01  3-Jul-2019

 ---------------------------------------------------------------
 #n M062X/6-311++G(d,p) TD(NStates=1) EmpiricalDispersion=GD3 SP
 ---------------------------------------------------------------

 ----
 SP_4
 ----
 Symbolic Z-matrix:
 Charge =  1 Multiplicity = 1

                         Standard orientation:
 ---------------------------------------------------------------------
 Center     Atomic      Atomic             Coordinates (Angstroms)
 Number     Number       Type             X           Y           Z
 ---------------------------------------------------------------------
      1          6           0       -2.331455   -1.700390    0.000000
      2          6           0       -2.172624   -3.084162    0.000000
      3          6           0       -0.890011   -3.621537    0.000000
      4          6           0        0.223838   -2.787957    0.000000
      5          6           0        2.367512    1.701322    0.000000
      6          6           0        2.152957    3.110557    0.000000
      7          6           0        0.873975    3.636679    0.000000
      8          6           0       -0.190375    2.744952    0.000000
      9          6           0       -1.286052    0.608686    0.000000
     10          6           0        1.316155   -0.631983    0.000000
     11          6           0       -1.202190   -0.856404    0.000000
     12          6           0        0.106989   -1.398360    0.000000
     13          6           0        0.000000    1.355758    0.000000
     14          6           0        1.282455    0.793987    0.000000
     15          1           0       -3.323712   -1.265464    0.000000
     16          1           0       -3.033971   -3.737272    0.000000
     17          1           0       -0.747002   -4.690450    0.000000
     18          1           0        1.216379   -3.220603    0.000000
     19          1           0        2.258394   -1.175345    0.000000
     20          1           0        3.388792    1.331173    0.000000
     21          1           0        3.012168    3.771424    0.000000
     22          1           0        0.698540    4.704923    0.000000
     23          1           0       -1.213201    3.113402    0.000000
     24          1           0       -1.881717    0.970660    0.859585
     25          1           0       -1.881717    0.970660   -0.859585
 ---------------------------------------------------------------------

 SCF Done:  E(RM062X) =  -539.749855018     A.U. after   15 cycles

 Excitation energies and oscillator strengths:

 Excited State   1:      Singlet-A'     2.7536 eV  450.27 nm  f=0.0281  <S**2>=0.000
      47 -> 48         0.70438
 This state for optimization and/or second-order correction.
 Total Energy, E(TD-HF/TD-DFT) =  -539.648663653
 Copying the excited state density for this state as the 1-particle RhoCI density.

 The electronic state is 1-A'.
 Alpha  occ. eigenvalues --  -10.78077 -10.73333 -10.73008 -10.72836 -10.72498
 Alpha  occ. eigenvalues --  -10.71842 -10.71178 -10.71095 -10.70942 -10.70854
 Alpha  occ. eigenvalues --  -10.70244 -10.69926 -10.69644 -10.69440  -1.16440
 Alpha  occ. eigenvalues --   -1.12420  -1.06886  -1.05781  -1.01313  -1.00140
 Alpha  occ. eigenvalues --   -0.95708  -0.90957  -0.86665  -0.85612  -0.83734
 Alpha  occ. eigenvalues --   -0.78323  -0.76001  -0.74314  -0.69476  -0.69348
 Alpha  occ. eigenvalues --   -0.68562  -0.68142  -0.68065  -0.64756  -0.64313
 Alpha  occ. eigenvalues --   -0.62813  -0.61642  -0.59883  -0.59605  -0.59050
 Alpha  occ. eigenvalues --   -0.56819  -0.55281  -0.54714  -0.52415  -0.46619
 Alpha  occ. eigenvalues --   -0.46058  -0.44330
 Alpha virt. eigenvalues --   -0.26178  -0.14743  -0.14169  -0.12779  -0.11208
 Alpha virt. eigenvalues --   -0.10102  -0.09228  -0.07998  -0.07997  -0.07493
 Alpha virt. eigenvalues --   -0.07250  -0.07211  -0.05661  -0.05583  -0.05346

 Mulliken charges:
               1
     1  C   -0.116766
     2  C   -0.415305
     3  C   -0.406492
     4  C    0.153643
     5  C    0.005776
     6  C   -0.476304
     7  C   -0.395909
     8  C    0.200085
     9  C   -0.280505
    10  C    0.090429
    11  C   -0.521174
    12  C    0.723772
    13  C   -0.450786
    14  C    0.254658
    15  H    0.232485
    16  H    0.257482
    17  H    0.250078
    18  H    0.212298
    19  H    0.203938
    20  H    0.232487
    21  H    0.247261
    22  H    0.259954
    23  H    0.237780
    24  H    0.250558
    25  H    0.250558
 Sum of Mulliken charges =   1.00000

 Dipole moment (field-independent basis, Debye):
    X=              0.1280    Y=             -0.1166    Z=              0.0000  Tot=              0.1732
 Quadrupole moment (field-independent basis, Debye-Ang):
   XX=            -51.7215   YY=            -35.7376   ZZ=            -84.2199
   XY=              9.5788   XZ=             -0.0000   YZ=              0.0000

 Normal termination of Gaussian 16 at Tue Aug  2 13:08:05 2022.
