 Gaussian 16, Revision C.01,
 Gaussian 16:  ES64L-G16RevC.01  3-Jul-2019

 ---------------------------------------------------------------
 #n M062X/6-311++G(d,p) TD(NStates=1) EmpiricalDispersion=GD3 SP
 ---------------------------------------------------------------

 ----
 SP_2
 ----
 Symbolic Z-matrix:
 Charge =  1 Multiplicity = 1

                         Standard orientation:
 ---------------------------------------------------------------------
 Center     Atomic      Atomic             Coordinates (Angstroms)
 Number     Number       Type             X           Y           Z
 ---------------------------------------------------------------------
      1          6           0       -2.272409   -1.653128    0.000000
      2          6           0       -2.204994   -3.037965    0.000000
      3          6           0       -0.948908   -3.628549    0.000000
      4          6           0        0.225819   -2.856306    0.000000
      5          6           0        2.341850    1.751489    0.000000
      6          6           0        2.080996    3.153140    0.000000
      7          6           0        0.788824    3.653914    0.000000
      8          6           0       -0.248103    2.731659    0.000000
      9          6           0       -1.238025    0.566540    0.000000
     10          6           0        1.381776   -0.636034    0.000000
     11          6           0       -1.098858   -0.882663    0.000000
     12          6           0        0.194330   -1.449453    0.000000
     13          6           0        0.000000    1.351226    0.000000
     14          6           0        1.290345    0.797598    0.000000
     15          1           0       -3.230151   -1.141898    0.000000
     16          1           0       -3.102073   -3.641968    0.000000
     17          1           0       -0.860139   -4.703329    0.000000
     18          1           0        1.185471   -3.361607    0.000000
     19          1           0        2.352317   -1.128260    0.000000
     20          1           0        3.379068    1.418306    0.000000
     21          1           0        2.922025    3.835223    0.000000
     22          1           0        0.591850    4.720250    0.000000
     23          1           0       -1.288498    3.059485    0.000000
     24          1           0       -1.852866    0.887498    0.859585
     25          1           0       -1.852866    0.887498   -0.859585
 ---------------------------------------------------------------------

 SCF Done:  E(RM062X) =  -539.745969333     A.U. after   15 cycles

 Excitation energies and oscillator strengths:

 Excited State   1:      Singlet-A'     2.6451 eV  468.74 nm  f=0.0257  <S**2>=0.000
      47 -> 48         0.70488
 This state for optimization and/or second-order correction.
 Total Energy, E(TD-HF/TD-DFT) =  -539.648764938
 Copying the excited state density for this state as the 1-particle RhoCI density.

 The electronic state is 1-A'.
 Alpha  occ. eigenvalues --  -10.78497 -10.73144 -10.72989 -10.72892 -10.72882
 Alpha  occ. eigenvalues --  -10.71882 -10.71398 -10.71005 -10.70936 -10.70518
 Alpha  occ. eigenvalues --  -10.69906 -10.69901 -10.69733 -10.69571  -1.16451
 Alpha  occ. eigenvalues --   -1.12331  -1.06842  -1.05933  -1.01255  -1.00069
 Alpha  occ. eigenvalues --   -0.95687  -0.90933  -0.86453  -0.85804  -0.83634
 Alpha  occ. eigenvalues --   -0.78292  -0.76033  -0.74261  -0.69337  -0.69266
 Alpha  occ. eigenvalues --   -0.68724  -0.68485  -0.68161  -0.64809  -0.64434
 Alpha  occ. eigenvalues --   -0.62599  -0.61512  -0.59695  -0.59546  -0.59056
 Alpha  occ. eigenvalues --   -0.56952  -0.55286  -0.54548  -0.52431  -0.46534
 Alpha  occ. eigenvalues --   -0.46060  -0.44101
 Alpha virt. eigenvalues --   -0.26368  -0.14790  -0.14241  -0.12780  -0.11238
 Alpha virt. eigenvalues --   -0.10097  -0.09221  -0.08019  -0.08015  -0.07477
 Alpha virt. eigenvalues --   -0.07323  -0.07298  -0.05655  -0.05589  -0.05377

 Mulliken charges:
               1
     1  C   -0.140441
     2  C   -0.362950
     3  C   -0.406492
     4  C    0.196648
     5  C    0.169496
     6  C   -0.445381
     7  C   -0.376457
     8  C    0.041611
     9  C   -0.342016
    10  C   -0.065730
    11  C   -0.367260
    12  C    0.450023
    13  C   -0.257598
    14  C    0.249817
    15  H    0.232304
    16  H    0.260033
    17  H    0.245771
    18  H    0.223503
    19  H    0.214684
    20  H    0.238966
    21  H    0.243936
    22  H    0.261971
    23  H    0.238516
    24  H    0.248523
    25  H    0.248523
 Sum of Mulliken charges =   1.00000

 Dipole moment (field-independent basis, Debye):
    X=              0.1079    Y=             -0.0603    Z=              0.0000  Tot=              0.1236
 Quadrupole moment (field-independent basis, Debye-Ang):
   XX=            -51.8633   YY=            -35.8401   ZZ=            -84.2580
   XY=              9.1743   XZ=              0.0000   YZ=              0.0000

 Normal termination of Gaussian 16 at Tue Aug  2 12:58:10 2022.
