 Gaussian 16, Revision C.01,
 Gaussian 16:  ES64L-G16RevC.01  3-Jul-2019

 ---------------------------------------------------------------
 #n M062X/6-311++G(d,p) TD(NStates=1) EmpiricalDispersion=GD3 SP
 ---------------------------------------------------------------

 -----
 SP_-6
 -----
 Symbolic Z-matrix:
 Charge =  1 Multiplicity = 1

                         Standard orientation:
 ---------------------------------------------------------------------
 Center     Atomic      Atomic             Coordinates (Angstroms)
 Number     Number       Type             X           Y           Z
 ---------------------------------------------------------------------
      1          6           0        0.425081    2.620497    0.000000
      2          6           0       -0.473531    3.687868    0.000000
      3          6           0       -1.819105    3.348251    0.000000
      4          6           0       -2.270882    1.964852    0.000000
      5          6           0       -0.393696   -2.798021    0.000000
      6          6           0        0.697497   -3.661775    0.000000
      7          6           0        2.005505   -3.186029    0.000000
      8          6           0        2.206459   -1.814230    0.000000
      9          6           0        1.239992    0.483856    0.000000
     10          6           0       -1.442673   -0.572575    0.000000
     11          6           0        0.000000    1.281206    0.000000
     12          6           0       -1.335320    0.867613    0.000000
     13          6           0        1.095478   -0.953644    0.000000
     14          6           0       -0.251653   -1.404480    0.000000
     15          1           0        1.516152    2.793210    0.000000
     16          1           0       -0.128354    4.725330    0.000000
     17          1           0       -2.572209    4.137371    0.000000
     18          1           0       -3.358459    1.784698    0.000000
     19          1           0       -2.412048   -1.091133    0.000000
     20          1           0       -1.394951   -3.211507    0.000000
     21          1           0        0.513030   -4.720982    0.000000
     22          1           0        2.836872   -3.877790    0.000000
     23          1           0        3.205525   -1.392822    0.000000
     24          1           0        1.847759    0.836648    0.859585
     25          1           0        1.847759    0.836648   -0.859585
 ---------------------------------------------------------------------

 SCF Done:  E(RM062X) =  -539.721640923     A.U. after   15 cycles

 Excitation energies and oscillator strengths:

 Excited State   1:      Singlet-A'     2.5429 eV  487.56 nm  f=0.0253  <S**2>=0.000
      47 -> 48         0.70476
 This state for optimization and/or second-order correction.
 Total Energy, E(TD-HF/TD-DFT) =  -539.628189845
 Copying the excited state density for this state as the 1-particle RhoCI density.

 The electronic state is 1-A'.
 Alpha  occ. eigenvalues --  -10.79036 -10.73749 -10.73028 -10.72918 -10.72917
 Alpha  occ. eigenvalues --  -10.72642 -10.71105 -10.71047 -10.71027 -10.70653
 Alpha  occ. eigenvalues --  -10.70450 -10.70105 -10.69783 -10.69320  -1.16447
 Alpha  occ. eigenvalues --   -1.12197  -1.06684  -1.05931  -1.01226  -0.99978
 Alpha  occ. eigenvalues --   -0.95450  -0.90690  -0.86789  -0.85408  -0.83402
 Alpha  occ. eigenvalues --   -0.78080  -0.75903  -0.73975  -0.69465  -0.69176
 Alpha  occ. eigenvalues --   -0.68777  -0.68464  -0.67862  -0.64723  -0.64346
 Alpha  occ. eigenvalues --   -0.62219  -0.61058  -0.59679  -0.59217  -0.58941
 Alpha  occ. eigenvalues --   -0.56764  -0.55359  -0.54274  -0.52336  -0.46543
 Alpha  occ. eigenvalues --   -0.46011  -0.43801
 Alpha virt. eigenvalues --   -0.26443  -0.15018  -0.14388  -0.12799  -0.11298
 Alpha virt. eigenvalues --   -0.10131  -0.09219  -0.08091  -0.08045  -0.07527
 Alpha virt. eigenvalues --   -0.07380  -0.07377  -0.05703  -0.05609  -0.05388

 Mulliken charges:
               1
     1  C    0.239718
     2  C   -0.390104
     3  C   -0.439000
     4  C    0.041712
     5  C    0.144728
     6  C   -0.339657
     7  C   -0.334629
     8  C   -0.270349
     9  C   -0.435560
    10  C   -0.143848
    11  C   -0.052381
    12  C    0.130649
    13  C   -0.462688
    14  C    0.624560
    15  H    0.246596
    16  H    0.266760
    17  H    0.243035
    18  H    0.257157
    19  H    0.229738
    20  H    0.207233
    21  H    0.247225
    22  H    0.260206
    23  H    0.227715
    24  H    0.250593
    25  H    0.250593
 Sum of Mulliken charges =   1.00000

 Dipole moment (field-independent basis, Debye):
    X=             -0.0773    Y=             -0.0437    Z=             -0.0000  Tot=              0.0888
 Quadrupole moment (field-independent basis, Debye-Ang):
   XX=            -52.8768   YY=            -34.8111   ZZ=            -84.4684
   XY=             -8.0172   XZ=             -0.0000   YZ=             -0.0000

 Normal termination of Gaussian 16 at Tue Aug  2 12:16:09 2022.
