 Gaussian 16, Revision C.01,
 Gaussian 16:  ES64L-G16RevC.01  3-Jul-2019

 ---------------------------------------------------------------
 #n M062X/6-311++G(d,p) TD(NStates=1) EmpiricalDispersion=GD3 SP
 ---------------------------------------------------------------

 -----
 SP_-6
 -----
 Symbolic Z-matrix:
 Charge =  1 Multiplicity = 1

                         Standard orientation:
 ---------------------------------------------------------------------
 Center     Atomic      Atomic             Coordinates (Angstroms)
 Number     Number       Type             X           Y           Z
 ---------------------------------------------------------------------
      1          6           0       -0.191609   -2.818782    0.000000
      2          6           0        0.934456   -3.644373    0.000000
      3          6           0        2.193066   -3.078189    0.000000
      4          6           0        2.312751   -1.665584    0.000000
      5          6           0        0.358022    2.647699    0.000000
      6          6           0       -0.596737    3.654795    0.000000
      7          6           0       -1.949194    3.278301    0.000000
      8          6           0       -2.348298    1.907377    0.000000
      9          6           0       -1.440605   -0.639264    0.000000
     10          6           0        1.187859    0.545606    0.000000
     11          6           0       -0.115269   -1.407363    0.000000
     12          6           0        1.167146   -0.856108    0.000000
     13          6           0       -1.355116    0.860242    0.000000
     14          6           0        0.000000    1.302067    0.000000
     15          1           0       -1.172730   -3.279556    0.000000
     16          1           0        0.803664   -4.714474    0.000000
     17          1           0        3.084564   -3.699949    0.000000
     18          1           0        3.296293   -1.212268    0.000000
     19          1           0        2.116315    1.104144    0.000000
     20          1           0        1.432176    2.888298    0.000000
     21          1           0       -0.299853    4.704513    0.000000
     22          1           0       -2.711898    4.059101    0.000000
     23          1           0       -3.426152    1.673691    0.000000
     24          1           0       -2.030608   -1.021022    0.859585
     25          1           0       -2.030608   -1.021022   -0.859585
 ---------------------------------------------------------------------

 SCF Done:  E(RM062X) =  -539.737960395     A.U. after   15 cycles

 Excitation energies and oscillator strengths:

 Excited State   1:      Singlet-A'     2.9938 eV  414.13 nm  f=0.0320  <S**2>=0.000
      47 -> 48         0.70310
 This state for optimization and/or second-order correction.
 Total Energy, E(TD-HF/TD-DFT) =  -539.627938520
 Copying the excited state density for this state as the 1-particle RhoCI density.

 The electronic state is 1-A'.
 Alpha  occ. eigenvalues --  -10.76868 -10.74500 -10.73411 -10.72043 -10.72038
 Alpha  occ. eigenvalues --  -10.72002 -10.71957 -10.71713 -10.71604 -10.71401
 Alpha  occ. eigenvalues --  -10.70774 -10.69860 -10.69856 -10.69837  -1.16411
 Alpha  occ. eigenvalues --   -1.12205  -1.06704  -1.05313  -1.01112  -1.00071
 Alpha  occ. eigenvalues --   -0.95465  -0.90712  -0.86829  -0.85432  -0.83583
 Alpha  occ. eigenvalues --   -0.78012  -0.75622  -0.73961  -0.70009  -0.69251
 Alpha  occ. eigenvalues --   -0.67928  -0.67795  -0.67434  -0.64193  -0.63767
 Alpha  occ. eigenvalues --   -0.62812  -0.61757  -0.60181  -0.59445  -0.58805
 Alpha  occ. eigenvalues --   -0.56580  -0.55293  -0.54693  -0.52213  -0.46595
 Alpha  occ. eigenvalues --   -0.45881  -0.44697
 Alpha virt. eigenvalues --   -0.25644  -0.14917  -0.14184  -0.13040  -0.11197
 Alpha virt. eigenvalues --   -0.10132  -0.09248  -0.08002  -0.07951  -0.07499
 Alpha virt. eigenvalues --   -0.07160  -0.06994  -0.05735  -0.05615  -0.05299

 Mulliken charges:
               1
     1  C    0.193912
     2  C   -0.324731
     3  C   -0.493196
     4  C   -0.136522
     5  C    0.145247
     6  C   -0.463782
     7  C   -0.366694
     8  C   -0.210228
     9  C   -0.530046
    10  C   -0.081655
    11  C   -0.357854
    12  C    0.530590
    13  C   -0.443475
    14  C    0.916288
    15  H    0.240724
    16  H    0.253005
    17  H    0.251231
    18  H    0.235083
    19  H    0.143621
    20  H    0.223273
    21  H    0.260546
    22  H    0.252936
    23  H    0.258554
    24  H    0.251588
    25  H    0.251588
 Sum of Mulliken charges =   1.00000

 Dipole moment (field-independent basis, Debye):
    X=              0.1433    Y=              0.3072    Z=              0.0000  Tot=              0.3389
 Quadrupole moment (field-independent basis, Debye-Ang):
   XX=            -52.1189   YY=            -34.3888   ZZ=            -84.4710
   XY=             -9.6473   XZ=             -0.0000   YZ=             -0.0000

 Normal termination of Gaussian 16 at Tue Aug  2 12:07:17 2022.
