 Gaussian 16, Revision C.01,
 Gaussian 16:  ES64L-G16RevC.01  3-Jul-2019

 ---------------------------------------------------------------
 #n M062X/6-311++G(d,p) TD(NStates=1) EmpiricalDispersion=GD3 SP
 ---------------------------------------------------------------

 ----
 SP_0
 ----
 Symbolic Z-matrix:
 Charge =  1 Multiplicity = 1

                         Standard orientation:
 ---------------------------------------------------------------------
 Center     Atomic      Atomic             Coordinates (Angstroms)
 Number     Number       Type             X           Y           Z
 ---------------------------------------------------------------------
      1          6           0        0.000000    2.518655    1.357063
      2          6           0        0.000000    3.713508    0.638621
      3          6           0        0.000000    3.673861   -0.747198
      4          6           0        0.000000    2.439156   -1.410906
      5          6           0       -0.000000   -2.439156   -1.410906
      6          6           0       -0.000000   -3.673861   -0.747198
      7          6           0       -0.000000   -3.713508    0.638621
      8          6           0       -0.000000   -2.518655    1.357063
      9          6           0       -0.000000   -0.000000    1.484001
     10          6           0        0.000000    0.000000   -1.398557
     11          6           0        0.000000    1.268055    0.703697
     12          6           0        0.000000    1.233471   -0.704172
     13          6           0       -0.000000   -1.268055    0.703697
     14          6           0       -0.000000   -1.233471   -0.704172
     15          1           0        0.000000    2.546071    2.440279
     16          1           0        0.000000    4.658753    1.160321
     17          1           0        0.000000    4.589262   -1.323717
     18          1           0        0.000000    2.413550   -2.493427
     19          1           0        0.000000    0.000000   -2.477634
     20          1           0       -0.000000   -2.413550   -2.493427
     21          1           0       -0.000000   -4.589262   -1.323717
     22          1           0       -0.000000   -4.658753    1.160321
     23          1           0       -0.000000   -2.546071    2.440279
     24          1           0       -0.859585    0.000000    2.176419
     25          1           0        0.859585   -0.000000    2.176419
 ---------------------------------------------------------------------

 SCF Done:  E(RM062X) =  -539.761508994     A.U. after   15 cycles

 Excitation energies and oscillator strengths:

 Excited State   1:      Singlet-A1     2.8745 eV  431.33 nm  f=0.0296  <S**2>=0.000
      47 -> 48         0.70401
 This state for optimization and/or second-order correction.
 Total Energy, E(TD-HF/TD-DFT) =  -539.655874163
 Copying the excited state density for this state as the 1-particle RhoCI density.

 The electronic state is 1-A1.
 Alpha  occ. eigenvalues --  -10.77393 -10.73376 -10.73376 -10.72273 -10.72271
 Alpha  occ. eigenvalues --  -10.71336 -10.71336 -10.71161 -10.71053 -10.71053
 Alpha  occ. eigenvalues --  -10.70094 -10.70094 -10.69635 -10.69635  -1.16438
 Alpha  occ. eigenvalues --   -1.12455  -1.06940  -1.05649  -1.01296  -1.00194
 Alpha  occ. eigenvalues --   -0.95766  -0.91049  -0.86428  -0.85903  -0.83820
 Alpha  occ. eigenvalues --   -0.78379  -0.75979  -0.74403  -0.69640  -0.69223
 Alpha  occ. eigenvalues --   -0.68437  -0.68152  -0.67978  -0.64654  -0.64184
 Alpha  occ. eigenvalues --   -0.63171  -0.61934  -0.60096  -0.59667  -0.59076
 Alpha  occ. eigenvalues --   -0.56873  -0.55198  -0.54883  -0.52416  -0.46636
 Alpha  occ. eigenvalues --   -0.46033  -0.44598
 Alpha virt. eigenvalues --   -0.25988  -0.14671  -0.14081  -0.12801  -0.11169
 Alpha virt. eigenvalues --   -0.10087  -0.09234  -0.07979  -0.07962  -0.07474
 Alpha virt. eigenvalues --   -0.07175  -0.07100  -0.05650  -0.05585  -0.05320

 Mulliken charges:
               1
     1  C    0.076177
     2  C   -0.392234
     3  C   -0.443753
     4  C    0.004122
     5  C    0.004122
     6  C   -0.443753
     7  C   -0.392234
     8  C    0.076177
     9  C   -0.388827
    10  C    0.032531
    11  C   -0.596192
    12  C    0.722407
    13  C   -0.596192
    14  C    0.722407
    15  H    0.239188
    16  H    0.254789
    17  H    0.249877
    18  H    0.223444
    19  H    0.179535
    20  H    0.223444
    21  H    0.249877
    22  H    0.254789
    23  H    0.239188
    24  H    0.250555
    25  H    0.250555
 Sum of Mulliken charges =   1.00000

 Dipole moment (field-independent basis, Debye):
    X=             -0.0000    Y=              0.0000    Z=             -0.2056  Tot=              0.2056
 Quadrupole moment (field-independent basis, Debye-Ang):
   XX=            -84.1539   YY=            -30.9181   ZZ=            -56.3101
   XY=              0.0000   XZ=              0.0000   YZ=             -0.0000

 Normal termination of Gaussian 16 at Tue Aug  2 12:44:35 2022.
