 Gaussian 16, Revision C.01,
 Gaussian 16:  ES64L-G16RevC.01  3-Jul-2019

 ---------------------------------------------------------------
 #n M062X/6-311++G(d,p) TD(NStates=1) EmpiricalDispersion=GD3 SP
 ---------------------------------------------------------------

 -----
 SP_-6
 -----
 Symbolic Z-matrix:
 Charge =  1 Multiplicity = 1

                         Standard orientation:
 ---------------------------------------------------------------------
 Center     Atomic      Atomic             Coordinates (Angstroms)
 Number     Number       Type             X           Y           Z
 ---------------------------------------------------------------------
      1          6           0        0.484141    2.588952    0.000000
      2          6           0       -0.371329    3.695508    0.000000
      3          6           0       -1.730081    3.401038    0.000000
      4          6           0       -2.239731    2.029349    0.000000
      5          6           0       -0.433112   -2.811991    0.000000
      6          6           0        0.665988   -3.672215    0.000000
      7          6           0        1.975123   -3.199424    0.000000
      8          6           0        2.167904   -1.828165    0.000000
      9          6           0        1.219620    0.451254    0.000000
     10          6           0       -1.481704   -0.556510    0.000000
     11          6           0        0.000000    1.266545    0.000000
     12          6           0       -1.345878    0.886599    0.000000
     13          6           0        1.050940   -0.976414    0.000000
     14          6           0       -0.300821   -1.412265    0.000000
     15          1           0        1.588714    2.711706    0.000000
     16          1           0        0.012837    4.723059    0.000000
     17          1           0       -2.455105    4.219022    0.000000
     18          1           0       -3.340286    1.897205    0.000000
     19          1           0       -2.462182   -1.058119    0.000000
     20          1           0       -1.431780   -3.235630    0.000000
     21          1           0        0.482696   -4.731415    0.000000
     22          1           0        2.807542   -3.890721    0.000000
     23          1           0        3.163865   -1.394678    0.000000
     24          1           0        1.833665    0.793003    0.859585
     25          1           0        1.833665    0.793003   -0.859585
 ---------------------------------------------------------------------

 SCF Done:  E(RM062X) =  -539.711962977     A.U. after   16 cycles

 Excitation energies and oscillator strengths:

 Excited State   1:      Singlet-A'     2.4727 eV  501.42 nm  f=0.0241  <S**2>=0.000
      47 -> 48         0.70488
 This state for optimization and/or second-order correction.
 Total Energy, E(TD-HF/TD-DFT) =  -539.621094153
 Copying the excited state density for this state as the 1-particle RhoCI density.

 The electronic state is 1-A'.
 Alpha  occ. eigenvalues --  -10.79289 -10.74015 -10.73107 -10.72936 -10.72890
 Alpha  occ. eigenvalues --  -10.72873 -10.71135 -10.71120 -10.71071 -10.70602
 Alpha  occ. eigenvalues --  -10.70521 -10.70050 -10.69917 -10.69344  -1.16459
 Alpha  occ. eigenvalues --   -1.12090  -1.06608  -1.05969  -1.01166  -0.99907
 Alpha  occ. eigenvalues --   -0.95347  -0.90597  -0.86754  -0.85418  -0.83270
 Alpha  occ. eigenvalues --   -0.77983  -0.75853  -0.73841  -0.69473  -0.69168
 Alpha  occ. eigenvalues --   -0.68756  -0.68624  -0.67814  -0.64672  -0.64338
 Alpha  occ. eigenvalues --   -0.62036  -0.60885  -0.59601  -0.59076  -0.58892
 Alpha  occ. eigenvalues --   -0.56780  -0.55369  -0.54103  -0.52302  -0.46496
 Alpha  occ. eigenvalues --   -0.45975  -0.43618
 Alpha virt. eigenvalues --   -0.26525  -0.15129  -0.14468  -0.12825  -0.11331
 Alpha virt. eigenvalues --   -0.10138  -0.09214  -0.08127  -0.08064  -0.07543
 Alpha virt. eigenvalues --   -0.07427  -0.07412  -0.05718  -0.05623  -0.05403

 Mulliken charges:
               1
     1  C    0.246604
     2  C   -0.387965
     3  C   -0.424616
     4  C    0.014181
     5  C    0.140635
     6  C   -0.329388
     7  C   -0.327832
     8  C   -0.238174
     9  C   -0.456514
    10  C   -0.133243
    11  C   -0.090307
    12  C    0.183615
    13  C   -0.517660
    14  C    0.619256
    15  H    0.248845
    16  H    0.269042
    17  H    0.242266
    18  H    0.261351
    19  H    0.234444
    20  H    0.209782
    21  H    0.245672
    22  H    0.261021
    23  H    0.228914
    24  H    0.250035
    25  H    0.250035
 Sum of Mulliken charges =   1.00000

 Dipole moment (field-independent basis, Debye):
    X=             -0.0571    Y=             -0.0155    Z=             -0.0000  Tot=              0.0591
 Quadrupole moment (field-independent basis, Debye-Ang):
   XX=            -53.0815   YY=            -34.6744   ZZ=            -84.5664
   XY=             -7.5739   XZ=             -0.0000   YZ=             -0.0000

 Normal termination of Gaussian 16 at Tue Aug  2 12:17:19 2022.
