 Gaussian 16, Revision C.01,
 Gaussian 16:  ES64L-G16RevC.01  3-Jul-2019

 ---------------------------------------------------------------
 #n M062X/6-311++G(d,p) TD(NStates=1) EmpiricalDispersion=GD3 SP
 ---------------------------------------------------------------

 ----
 SP_2
 ----
 Symbolic Z-matrix:
 Charge =  1 Multiplicity = 1

                         Standard orientation:
 ---------------------------------------------------------------------
 Center     Atomic      Atomic             Coordinates (Angstroms)
 Number     Number       Type             X           Y           Z
 ---------------------------------------------------------------------
      1          6           0       -2.422997    1.381632    0.000000
      2          6           0       -3.668285    0.773832    0.000000
      3          6           0       -3.704449   -0.614225    0.000000
      4          6           0       -2.527140   -1.391000    0.000000
      5          6           0        2.591295   -1.396799    0.000000
      6          6           0        3.743002   -0.546281    0.000000
      7          6           0        3.638486    0.836946    0.000000
      8          6           0        2.354490    1.365821    0.000000
      9          6           0       -0.000000    1.330866    0.000000
     10          6           0       -0.002991   -1.551760    0.000000
     11          6           0       -1.253795    0.605151    0.000000
     12          6           0       -1.240880   -0.806666    0.000000
     13          6           0        1.222768    0.535763    0.000000
     14          6           0        1.266466   -0.867873    0.000000
     15          1           0       -2.324806    2.465446    0.000000
     16          1           0       -4.580982    1.356157    0.000000
     17          1           0       -4.654856   -1.124360    0.000000
     18          1           0       -2.617145   -2.474071    0.000000
     19          1           0       -0.046565   -2.641113    0.000000
     20          1           0        2.750074   -2.478402    0.000000
     21          1           0        4.723150   -1.009024    0.000000
     22          1           0        4.515964    1.477834    0.000000
     23          1           0        2.187517    2.448071    0.000000
     24          1           0        0.035914    2.023508    0.859585
     25          1           0        0.035914    2.023508   -0.859585
 ---------------------------------------------------------------------

 SCF Done:  E(RM062X) =  -539.738846705     A.U. after   15 cycles

 Excitation energies and oscillator strengths:

 Excited State   1:      Singlet-A'     2.5810 eV  480.37 nm  f=0.0246  <S**2>=0.000
      47 -> 48         0.70506
 This state for optimization and/or second-order correction.
 Total Energy, E(TD-HF/TD-DFT) =  -539.643996908
 Copying the excited state density for this state as the 1-particle RhoCI density.

 The electronic state is 1-A'.
 Alpha  occ. eigenvalues --  -10.78754 -10.73370 -10.73096 -10.72876 -10.72846
 Alpha  occ. eigenvalues --  -10.72048 -10.71512 -10.70999 -10.70976 -10.70373
 Alpha  occ. eigenvalues --  -10.70000 -10.69877 -10.69773 -10.69620  -1.16458
 Alpha  occ. eigenvalues --   -1.12237  -1.06777  -1.05989  -1.01202  -1.00002
 Alpha  occ. eigenvalues --   -0.95618  -0.90860  -0.86427  -0.85803  -0.83529
 Alpha  occ. eigenvalues --   -0.78212  -0.75998  -0.74157  -0.69361  -0.69152
 Alpha  occ. eigenvalues --   -0.68798  -0.68635  -0.68131  -0.64777  -0.64443
 Alpha  occ. eigenvalues --   -0.62418  -0.61368  -0.59597  -0.59445  -0.59020
 Alpha  occ. eigenvalues --   -0.56975  -0.55309  -0.54413  -0.52411  -0.46485
 Alpha  occ. eigenvalues --   -0.46037  -0.43941
 Alpha virt. eigenvalues --   -0.26454  -0.14864  -0.14313  -0.12809  -0.11263
 Alpha virt. eigenvalues --   -0.10103  -0.09216  -0.08043  -0.08031  -0.07478
 Alpha virt. eigenvalues --   -0.07367  -0.07348  -0.05666  -0.05598  -0.05390

 Mulliken charges:
               1
     1  C   -0.124261
     2  C   -0.354141
     3  C   -0.395589
     4  C    0.185355
     5  C    0.148005
     6  C   -0.431213
     7  C   -0.369648
     8  C    0.050002
     9  C   -0.373500
    10  C   -0.075052
    11  C   -0.403574
    12  C    0.464597
    13  C   -0.283920
    14  C    0.290915
    15  H    0.234053
    16  H    0.261265
    17  H    0.244285
    18  H    0.226287
    19  H    0.220347
    20  H    0.242743
    21  H    0.242673
    22  H    0.263692
    23  H    0.240771
    24  H    0.247953
    25  H    0.247953
 Sum of Mulliken charges =   1.00000

 Dipole moment (field-independent basis, Debye):
    X=             -0.0033    Y=             -0.0983    Z=             -0.0000  Tot=              0.0983
 Quadrupole moment (field-independent basis, Debye-Ang):
   XX=            -31.8573   YY=            -55.9253   ZZ=            -84.3355
   XY=              0.0720   XZ=              0.0000   YZ=             -0.0000

 Normal termination of Gaussian 16 at Tue Aug  2 12:59:17 2022.
