 Gaussian 16, Revision C.01,
 Gaussian 16:  ES64L-G16RevC.01  3-Jul-2019

 ---------------------------------------------------------------
 #n M062X/6-311++G(d,p) TD(NStates=1) EmpiricalDispersion=GD3 SP
 ---------------------------------------------------------------

 ----
 SP_6
 ----
 Symbolic Z-matrix:
 Charge =  1 Multiplicity = 1

                         Standard orientation:
 ---------------------------------------------------------------------
 Center     Atomic      Atomic             Coordinates (Angstroms)
 Number     Number       Type             X           Y           Z
 ---------------------------------------------------------------------
      1          6           0        2.373643    1.841063    0.000000
      2          6           0        2.031584    3.219278    0.000000
      3          6           0        0.694865    3.639365    0.000000
      4          6           0       -0.298976    2.674074    0.000000
      5          6           0       -2.348130   -1.648325    0.000000
      6          6           0       -2.219973   -3.062255    0.000000
      7          6           0       -0.962444   -3.630193    0.000000
      8          6           0        0.156152   -2.799327    0.000000
      9          6           0        1.401281   -0.651771    0.000000
     10          6           0       -1.206142    0.578711    0.000000
     11          6           0        1.343134    0.841886    0.000000
     12          6           0        0.000000    1.316384    0.000000
     13          6           0        0.068864   -1.392818    0.000000
     14          6           0       -1.207831   -0.828434    0.000000
     15          1           0        3.434210    1.559418    0.000000
     16          1           0        2.820131    3.970200    0.000000
     17          1           0        0.436827    4.695884    0.000000
     18          1           0       -1.356539    2.960741    0.000000
     19          1           0       -2.126551    1.154155    0.000000
     20          1           0       -3.335862   -1.205335    0.000000
     21          1           0       -3.109811   -3.684861    0.000000
     22          1           0       -0.829802   -4.700621    0.000000
     23          1           0        1.142148   -3.247906    0.000000
     24          1           0        1.984544   -1.043750    0.859585
     25          1           0        1.984544   -1.043750   -0.859585
 ---------------------------------------------------------------------

 SCF Done:  E(RM062X) =  -539.741686137     A.U. after   15 cycles

 Excitation energies and oscillator strengths:

 Excited State   1:      Singlet-A'     2.9487 eV  420.47 nm  f=0.0314  <S**2>=0.000
      47 -> 48         0.70339
 This state for optimization and/or second-order correction.
 Total Energy, E(TD-HF/TD-DFT) =  -539.633323493
 Copying the excited state density for this state as the 1-particle RhoCI density.

 The electronic state is 1-A'.
 Alpha  occ. eigenvalues --  -10.77153 -10.74272 -10.73295 -10.72142 -10.72104
 Alpha  occ. eigenvalues --  -10.71840 -10.71831 -10.71647 -10.71406 -10.71256
 Alpha  occ. eigenvalues --  -10.70754 -10.69870 -10.69720 -10.69720  -1.16419
 Alpha  occ. eigenvalues --   -1.12290  -1.06770  -1.05411  -1.01186  -1.00108
 Alpha  occ. eigenvalues --   -0.95538  -0.90781  -0.86847  -0.85419  -0.83651
 Alpha  occ. eigenvalues --   -0.78103  -0.75721  -0.74073  -0.69908  -0.69297
 Alpha  occ. eigenvalues --   -0.68058  -0.67850  -0.67546  -0.64332  -0.63877
 Alpha  occ. eigenvalues --   -0.62864  -0.61747  -0.60120  -0.59515  -0.58867
 Alpha  occ. eigenvalues --   -0.56590  -0.55300  -0.54749  -0.52266  -0.46620
 Alpha  occ. eigenvalues --   -0.45940  -0.44642
 Alpha virt. eigenvalues --   -0.25755  -0.14851  -0.14166  -0.12972  -0.11195
 Alpha virt. eigenvalues --   -0.10127  -0.09245  -0.07999  -0.07963  -0.07499
 Alpha virt. eigenvalues --   -0.07168  -0.07040  -0.05719  -0.05604  -0.05304

 Mulliken charges:
               1
     1  C   -0.173971
     2  C   -0.378214
     3  C   -0.448335
     4  C    0.132053
     5  C   -0.180031
     6  C   -0.482663
     7  C   -0.328034
     8  C    0.210845
     9  C   -0.520290
    10  C   -0.067107
    11  C   -0.483377
    12  C    0.934529
    13  C   -0.394304
    14  C    0.552340
    15  H    0.254339
    16  H    0.253268
    17  H    0.258529
    18  H    0.216835
    19  H    0.162282
    20  H    0.232520
    21  H    0.250421
    22  H    0.254461
    23  H    0.240014
    24  H    0.251944
    25  H    0.251944
 Sum of Mulliken charges =   1.00000

 Dipole moment (field-independent basis, Debye):
    X=             -0.1368    Y=              0.2732    Z=              0.0000  Tot=              0.3055
 Quadrupole moment (field-independent basis, Debye-Ang):
   XX=            -51.8223   YY=            -34.9089   ZZ=            -84.3938
   XY=              9.8670   XZ=              0.0000   YZ=             -0.0000

 Normal termination of Gaussian 16 at Tue Aug  2 13:15:47 2022.
