 Gaussian 16, Revision C.01,
 Gaussian 16:  ES64L-G16RevC.01  3-Jul-2019

 ---------------------------------------------------------------
 #n M062X/6-311++G(d,p) TD(NStates=1) EmpiricalDispersion=GD3 SP
 ---------------------------------------------------------------

 -----
 SP_-6
 -----
 Symbolic Z-matrix:
 Charge =  1 Multiplicity = 1

                         Standard orientation:
 ---------------------------------------------------------------------
 Center     Atomic      Atomic             Coordinates (Angstroms)
 Number     Number       Type             X           Y           Z
 ---------------------------------------------------------------------
      1          6           0       -0.090573   -2.759217    0.000000
      2          6           0        1.013738   -3.603382    0.000000
      3          6           0        2.270702   -3.032932    0.000000
      4          6           0        2.417337   -1.614348    0.000000
      5          6           0        0.181587    2.722819    0.000000
      6          6           0       -0.885873    3.602597    0.000000
      7          6           0       -2.188385    3.098153    0.000000
      8          6           0       -2.417599    1.710332    0.000000
      9          6           0       -1.323458   -0.671768    0.000000
     10          6           0        1.241015    0.645890    0.000000
     11          6           0        0.020726   -1.360211    0.000000
     12          6           0        1.286444   -0.771097    0.000000
     13          6           0       -1.317612    0.808708    0.000000
     14          6           0        0.000000    1.346177    0.000000
     15          1           0       -1.088949   -3.183249    0.000000
     16          1           0        0.876122   -4.675480    0.000000
     17          1           0        3.157430   -3.658954    0.000000
     18          1           0        3.415882   -1.192247    0.000000
     19          1           0        2.145103    1.253780    0.000000
     20          1           0        1.202583    3.098891    0.000000
     21          1           0       -0.704712    4.669405    0.000000
     22          1           0       -3.025379    3.788315    0.000000
     23          1           0       -3.440014    1.335581    0.000000
     24          1           0       -1.893178   -1.083182    0.859585
     25          1           0       -1.893178   -1.083182   -0.859585
 ---------------------------------------------------------------------

 SCF Done:  E(RM062X) =  -539.744048729     A.U. after   15 cycles

 Excitation energies and oscillator strengths:

 Excited State   1:      Singlet-A'     2.8487 eV  435.23 nm  f=0.0300  <S**2>=0.000
      47 -> 48         0.70389
 This state for optimization and/or second-order correction.
 Total Energy, E(TD-HF/TD-DFT) =  -539.639360698
 Copying the excited state density for this state as the 1-particle RhoCI density.

 The electronic state is 1-A'.
 Alpha  occ. eigenvalues --  -10.77711 -10.73849 -10.73106 -10.72547 -10.72268
 Alpha  occ. eigenvalues --  -10.71811 -10.71537 -10.71462 -10.71048 -10.70876
 Alpha  occ. eigenvalues --  -10.70759 -10.69947 -10.69581 -10.69505  -1.16428
 Alpha  occ. eigenvalues --   -1.12387  -1.06840  -1.05592  -1.01285  -1.00137
 Alpha  occ. eigenvalues --   -0.95624  -0.90857  -0.86865  -0.85395  -0.83714
 Alpha  occ. eigenvalues --   -0.78214  -0.75866  -0.74202  -0.69707  -0.69363
 Alpha  occ. eigenvalues --   -0.68302  -0.67914  -0.67780  -0.64564  -0.64087
 Alpha  occ. eigenvalues --   -0.62830  -0.61654  -0.59986  -0.59582  -0.58953
 Alpha  occ. eigenvalues --   -0.56628  -0.55313  -0.54763  -0.52341  -0.46649
 Alpha  occ. eigenvalues --   -0.46015  -0.44483
 Alpha virt. eigenvalues --   -0.25968  -0.14788  -0.14168  -0.12864  -0.11201
 Alpha virt. eigenvalues --   -0.10121  -0.09237  -0.07999  -0.07987  -0.07503
 Alpha virt. eigenvalues --   -0.07204  -0.07133  -0.05695  -0.05589  -0.05320

 Mulliken charges:
               1
     1  C    0.244727
     2  C   -0.340111
     3  C   -0.458053
     4  C   -0.261469
     5  C    0.121023
     6  C   -0.410908
     7  C   -0.407949
     8  C   -0.107651
     9  C   -0.487089
    10  C   -0.021555
    11  C   -0.492085
    12  C    0.572478
    13  C   -0.567408
    14  C    0.980079
    15  H    0.239679
    16  H    0.257685
    17  H    0.249388
    18  H    0.230206
    19  H    0.190579
    20  H    0.208480
    21  H    0.254777
    22  H    0.254408
    23  H    0.246448
    24  H    0.252161
    25  H    0.252161
 Sum of Mulliken charges =   1.00000

 Dipole moment (field-independent basis, Debye):
    X=              0.1224    Y=              0.2081    Z=              0.0000  Tot=              0.2414
 Quadrupole moment (field-independent basis, Debye-Ang):
   XX=            -51.1950   YY=            -35.9101   ZZ=            -84.3048
   XY=            -10.2241   XZ=             -0.0000   YZ=             -0.0000

 Normal termination of Gaussian 16 at Tue Aug  2 12:10:33 2022.
