 Gaussian 16, Revision C.01,
 Gaussian 16:  ES64L-G16RevC.01  3-Jul-2019

 ---------------------------------------------------------------
 #n M062X/6-311++G(d,p) TD(NStates=1) EmpiricalDispersion=GD3 SP
 ---------------------------------------------------------------

 ------
 SP_-10
 ------
 Symbolic Z-matrix:
 Charge =  1 Multiplicity = 1

                         Standard orientation:
 ---------------------------------------------------------------------
 Center     Atomic      Atomic             Coordinates (Angstroms)
 Number     Number       Type             X           Y           Z
 ---------------------------------------------------------------------
      1          6           0       -0.272436   -2.723488    0.000000
      2          6           0        0.755602   -3.661705    0.000000
      3          6           0        2.054803   -3.206621    0.000000
      4          6           0        2.314505   -1.793950    0.000000
      5          6           0        0.414680    2.598495    0.000000
      6          6           0       -0.480036    3.648435    0.000000
      7          6           0       -1.858470    3.342043    0.000000
      8          6           0       -2.339566    1.989095    0.000000
      9          6           0       -1.426134   -0.596257    0.000000
     10          6           0        1.224507    0.540951    0.000000
     11          6           0       -0.068217   -1.334634    0.000000
     12          6           0        1.241877   -0.874312    0.000000
     13          6           0       -1.386917    0.899553    0.000000
     14          6           0        0.000000    1.272606    0.000000
     15          1           0       -1.299707   -3.070519    0.000000
     16          1           0        0.515261   -4.715542    0.000000
     17          1           0        2.887873   -3.907914    0.000000
     18          1           0        3.343233   -1.452587    0.000000
     19          1           0        2.136051    1.163347    0.000000
     20          1           0        1.505417    2.780270    0.000000
     21          1           0       -0.127775    4.681557    0.000000
     22          1           0       -2.574284    4.174556    0.000000
     23          1           0       -3.433055    1.812484    0.000000
     24          1           0       -1.999108   -1.033457    0.859585
     25          1           0       -1.999108   -1.033457   -0.859585
 ---------------------------------------------------------------------

 SCF Done:  E(RM062X) =  -539.706898786     A.U. after   16 cycles

 Excitation energies and oscillator strengths:

 Excited State   1:      Singlet-A'     2.9145 eV  425.40 nm  f=0.0314  <S**2>=0.000
      47 -> 48         0.70344
 This state for optimization and/or second-order correction.
 Total Energy, E(TD-HF/TD-DFT) =  -539.599792488
 Copying the excited state density for this state as the 1-particle RhoCI density.

 The electronic state is 1-A'.
 Alpha  occ. eigenvalues --  -10.77682 -10.74764 -10.73136 -10.72370 -10.72358
 Alpha  occ. eigenvalues --  -10.72353 -10.72351 -10.72194 -10.71940 -10.71287
 Alpha  occ. eigenvalues --  -10.70562 -10.70073 -10.69830 -10.69385  -1.16417
 Alpha  occ. eigenvalues --   -1.12180  -1.06594  -1.05314  -1.01155  -0.99995
 Alpha  occ. eigenvalues --   -0.95299  -0.90454  -0.87208  -0.84939  -0.83481
 Alpha  occ. eigenvalues --   -0.77809  -0.75586  -0.73722  -0.70146  -0.69311
 Alpha  occ. eigenvalues --   -0.67901  -0.67517  -0.67220  -0.64195  -0.63682
 Alpha  occ. eigenvalues --   -0.62195  -0.61311  -0.59885  -0.59393  -0.58591
 Alpha  occ. eigenvalues --   -0.56105  -0.55429  -0.54540  -0.52135  -0.46611
 Alpha  occ. eigenvalues --   -0.45912  -0.44466
 Alpha virt. eigenvalues --   -0.25712  -0.15062  -0.14307  -0.13090  -0.11260
 Alpha virt. eigenvalues --   -0.10191  -0.09252  -0.08038  -0.07993  -0.07547
 Alpha virt. eigenvalues --   -0.07218  -0.07079  -0.05787  -0.05620  -0.05300

 Mulliken charges:
               1
     1  C    0.296183
     2  C   -0.291604
     3  C   -0.475647
     4  C   -0.384293
     5  C    0.085588
     6  C   -0.501705
     7  C   -0.342231
     8  C   -0.301461
     9  C   -0.677627
    10  C   -0.161404
    11  C   -0.069672
    12  C    0.472787
    13  C   -0.426310
    14  C    1.116422
    15  H    0.242029
    16  H    0.256615
    17  H    0.250798
    18  H    0.236008
    19  H    0.186255
    20  H    0.200462
    21  H    0.264046
    22  H    0.255781
    23  H    0.265156
    24  H    0.251912
    25  H    0.251912
 Sum of Mulliken charges =   1.00000

 Dipole moment (field-independent basis, Debye):
    X=              0.0966    Y=              0.3943    Z=              0.0000  Tot=              0.4059
 Quadrupole moment (field-independent basis, Debye-Ang):
   XX=            -52.5945   YY=            -33.8981   ZZ=            -84.6541
   XY=             -9.1950   XZ=             -0.0000   YZ=             -0.0000

 Normal termination of Gaussian 16 at Tue Aug  2 11:43:54 2022.
