 Gaussian 16, Revision C.01,
 Gaussian 16:  ES64L-G16RevC.01  3-Jul-2019

 ---------------------------------------------------------------
 #n M062X/6-311++G(d,p) TD(NStates=1) EmpiricalDispersion=GD3 SP
 ---------------------------------------------------------------

 -----
 SP_10
 -----
 Symbolic Z-matrix:
 Charge =  1 Multiplicity = 1

                         Standard orientation:
 ---------------------------------------------------------------------
 Center     Atomic      Atomic             Coordinates (Angstroms)
 Number     Number       Type             X           Y           Z
 ---------------------------------------------------------------------
      1          6           0       -2.321129   -1.912253    0.000000
      2          6           0       -1.939413   -3.271832    0.000000
      3          6           0       -0.584959   -3.640022    0.000000
      4          6           0        0.378636   -2.662025    0.000000
      5          6           0        2.331547    1.864242    0.000000
      6          6           0        1.973033    3.270434    0.000000
      7          6           0        0.650008    3.664272    0.000000
      8          6           0       -0.309558    2.654507    0.000000
      9          6           0       -1.340362    0.563251    0.000000
     10          6           0        1.310044   -0.574503    0.000000
     11          6           0       -1.306114   -0.911443    0.000000
     12          6           0        0.069854   -1.312742    0.000000
     13          6           0        0.000000    1.288920    0.000000
     14          6           0        1.320870    0.856289    0.000000
     15          1           0       -3.379795   -1.645941    0.000000
     16          1           0       -2.694858   -4.056669    0.000000
     17          1           0       -0.294112   -4.681609    0.000000
     18          1           0        1.436723   -2.927907    0.000000
     19          1           0        2.227053   -1.199261    0.000000
     20          1           0        3.392818    1.606550    0.000000
     21          1           0        2.766788    4.019085    0.000000
     22          1           0        0.348683    4.709765    0.000000
     23          1           0       -1.371546    2.912274    0.000000
     24          1           0       -1.913246    1.000569    0.859585
     25          1           0       -1.913246    1.000569   -0.859585
 ---------------------------------------------------------------------

 SCF Done:  E(RM062X) =  -539.709569573     A.U. after   16 cycles

 Excitation energies and oscillator strengths:

 Excited State   1:      Singlet-A'     2.7447 eV  451.73 nm  f=0.0297  <S**2>=0.000
      47 -> 48         0.70404
 This state for optimization and/or second-order correction.
 Total Energy, E(TD-HF/TD-DFT) =  -539.608704626
 Copying the excited state density for this state as the 1-particle RhoCI density.

 The electronic state is 1-A'.
 Alpha  occ. eigenvalues --  -10.78526 -10.74045 -10.73124 -10.72996 -10.72499
 Alpha  occ. eigenvalues --  -10.72391 -10.71813 -10.71795 -10.71267 -10.70836
 Alpha  occ. eigenvalues --  -10.70737 -10.70356 -10.69420 -10.69400  -1.16415
 Alpha  occ. eigenvalues --   -1.12276  -1.06679  -1.05568  -1.01295  -1.00033
 Alpha  occ. eigenvalues --   -0.95377  -0.90536  -0.87232  -0.84910  -0.83502
 Alpha  occ. eigenvalues --   -0.77926  -0.75736  -0.73886  -0.69808  -0.69358
 Alpha  occ. eigenvalues --   -0.68263  -0.67630  -0.67581  -0.64503  -0.63947
 Alpha  occ. eigenvalues --   -0.62226  -0.61093  -0.59792  -0.59359  -0.58754
 Alpha  occ. eigenvalues --   -0.56187  -0.55419  -0.54539  -0.52228  -0.46683
 Alpha  occ. eigenvalues --   -0.45991  -0.44168
 Alpha virt. eigenvalues --   -0.26039  -0.15000  -0.14344  -0.12916  -0.11272
 Alpha virt. eigenvalues --   -0.10182  -0.09239  -0.08062  -0.08036  -0.07565
 Alpha virt. eigenvalues --   -0.07270  -0.07234  -0.05765  -0.05604  -0.05326

 Mulliken charges:
               1
     1  C   -0.228038
     2  C   -0.384163
     3  C   -0.425510
     4  C    0.059394
     5  C   -0.443982
     6  C   -0.458627
     7  C   -0.314835
     8  C    0.339050
     9  C   -0.713628
    10  C   -0.247824
    11  C   -0.620794
    12  C    1.176817
    13  C    0.104918
    14  C    0.474876
    15  H    0.251637
    16  H    0.255827
    17  H    0.258159
    18  H    0.186643
    19  H    0.223091
    20  H    0.245478
    21  H    0.249458
    22  H    0.263045
    23  H    0.243624
    24  H    0.252693
    25  H    0.252693
 Sum of Mulliken charges =   1.00000

 Dipole moment (field-independent basis, Debye):
    X=              0.0922    Y=             -0.2352    Z=             -0.0000  Tot=              0.2526
 Quadrupole moment (field-independent basis, Debye-Ang):
   XX=            -52.6278   YY=            -34.4163   ZZ=            -84.5589
   XY=              8.9214   XZ=             -0.0000   YZ=             -0.0000

 Normal termination of Gaussian 16 at Tue Aug  2 13:43:25 2022.
