 Gaussian 16, Revision C.01,
 Gaussian 16:  ES64L-G16RevC.01  3-Jul-2019

 ---------------------------------------------------------------
 #n M062X/6-311++G(d,p) TD(NStates=1) EmpiricalDispersion=GD3 SP
 ---------------------------------------------------------------

 ----
 SP_8
 ----
 Symbolic Z-matrix:
 Charge =  1 Multiplicity = 1

                         Standard orientation:
 ---------------------------------------------------------------------
 Center     Atomic      Atomic             Coordinates (Angstroms)
 Number     Number       Type             X           Y           Z
 ---------------------------------------------------------------------
      1          6           0       -2.263360   -1.863595    0.000000
      2          6           0       -1.972119   -3.228500    0.000000
      3          6           0       -0.641386   -3.650296    0.000000
      4          6           0        0.385525   -2.730002    0.000000
      5          6           0        2.301598    1.914675    0.000000
      6          6           0        1.896407    3.309817    0.000000
      7          6           0        0.561939    3.676658    0.000000
      8          6           0       -0.367382    2.637897    0.000000
      9          6           0       -1.290448    0.523154    0.000000
     10          6           0        1.376306   -0.574100    0.000000
     11          6           0       -1.200952   -0.933349    0.000000
     12          6           0        0.160337   -1.359317    0.000000
     13          6           0        0.000000    1.285019    0.000000
     14          6           0        1.328118    0.861830    0.000000
     15          1           0       -3.291543   -1.519966    0.000000
     16          1           0       -2.765133   -3.966442    0.000000
     17          1           0       -0.403836   -4.700225    0.000000
     18          1           0        1.414545   -3.069466    0.000000
     19          1           0        2.319889   -1.145977    0.000000
     20          1           0        3.376299    1.695625    0.000000
     21          1           0        2.669996    4.078825    0.000000
     22          1           0        0.238691    4.718289    0.000000
     23          1           0       -1.444220    2.853277    0.000000
     24          1           0       -1.881091    0.918354    0.859585
     25          1           0       -1.881091    0.918354   -0.859585
 ---------------------------------------------------------------------

 SCF Done:  E(RM062X) =  -539.720946355     A.U. after   15 cycles

 Excitation energies and oscillator strengths:

 Excited State   1:      Singlet-A'     2.6479 eV  468.23 nm  f=0.0278  <S**2>=0.000
      47 -> 48         0.70437
 This state for optimization and/or second-order correction.
 Total Energy, E(TD-HF/TD-DFT) =  -539.623637092
 Copying the excited state density for this state as the 1-particle RhoCI density.

 The electronic state is 1-A'.
 Alpha  occ. eigenvalues --  -10.78760 -10.73454 -10.73436 -10.72961 -10.72627
 Alpha  occ. eigenvalues --  -10.72514 -10.71358 -10.71188 -10.70889 -10.70813
 Alpha  occ. eigenvalues --  -10.70542 -10.70404 -10.69590 -10.69261  -1.16426
 Alpha  occ. eigenvalues --   -1.12297  -1.06724  -1.05769  -1.01307  -1.00045
 Alpha  occ. eigenvalues --   -0.95461  -0.90671  -0.87028  -0.85164  -0.83503
 Alpha  occ. eigenvalues --   -0.78074  -0.75864  -0.74008  -0.69582  -0.69302
 Alpha  occ. eigenvalues --   -0.68568  -0.68026  -0.67771  -0.64683  -0.64203
 Alpha  occ. eigenvalues --   -0.62327  -0.61119  -0.59789  -0.59321  -0.58907
 Alpha  occ. eigenvalues --   -0.56519  -0.55382  -0.54452  -0.52310  -0.46648
 Alpha  occ. eigenvalues --   -0.46021  -0.44016
 Alpha virt. eigenvalues --   -0.26253  -0.14967  -0.14333  -0.12807  -0.11273
 Alpha virt. eigenvalues --   -0.10148  -0.09229  -0.08072  -0.08029  -0.07547
 Alpha virt. eigenvalues --   -0.07314  -0.07306  -0.05721  -0.05599  -0.05356

 Mulliken charges:
               1
     1  C   -0.397563
     2  C   -0.328124
     3  C   -0.337195
     4  C    0.096844
     5  C   -0.008961
     6  C   -0.466043
     7  C   -0.385336
     8  C    0.318378
     9  C   -0.427954
    10  C   -0.142497
    11  C   -0.363175
    12  C    0.767296
    13  C    0.063266
    14  C   -0.059901
    15  H    0.226283
    16  H    0.260208
    17  H    0.251919
    18  H    0.195250
    19  H    0.225318
    20  H    0.252826
    21  H    0.245795
    22  H    0.264193
    23  H    0.244267
    24  H    0.252453
    25  H    0.252453
 Sum of Mulliken charges =   1.00000

 Dipole moment (field-independent basis, Debye):
    X=              0.0950    Y=             -0.1202    Z=              0.0000  Tot=              0.1533
 Quadrupole moment (field-independent basis, Debye-Ang):
   XX=            -52.7906   YY=            -34.6301   ZZ=            -84.4534
   XY=              8.4674   XZ=             -0.0000   YZ=             -0.0000

 Normal termination of Gaussian 16 at Tue Aug  2 13:33:22 2022.
