 Gaussian 16, Revision C.01,
 Gaussian 16:  ES64L-G16RevC.01  3-Jul-2019

 ---------------------------------------------------------------
 #n M062X/6-311++G(d,p) TD(NStates=1) EmpiricalDispersion=GD3 SP
 ---------------------------------------------------------------

 -----
 SP_10
 -----
 Symbolic Z-matrix:
 Charge =  1 Multiplicity = 1

                         Standard orientation:
 ---------------------------------------------------------------------
 Center     Atomic      Atomic             Coordinates (Angstroms)
 Number     Number       Type             X           Y           Z
 ---------------------------------------------------------------------
      1          6           0        2.308050    2.057741    0.000000
      2          6           0        1.768938    3.398730    0.000000
      3          6           0        0.377470    3.658835    0.000000
      4          6           0       -0.474273    2.568984    0.000000
      5          6           0       -2.275698   -1.812908    0.000000
      6          6           0       -2.022810   -3.223312    0.000000
      7          6           0       -0.722972   -3.674856    0.000000
      8          6           0        0.310808   -2.741207    0.000000
      9          6           0        1.465708   -0.580248    0.000000
     10          6           0       -1.205583    0.507569    0.000000
     11          6           0        1.397050    0.921588    0.000000
     12          6           0        0.000000    1.259449    0.000000
     13          6           0        0.115904   -1.347953    0.000000
     14          6           0       -1.199059   -0.902638    0.000000
     15          1           0        3.415663    1.931492    0.000000
     16          1           0        2.455731    4.259978    0.000000
     17          1           0       -0.014249    4.682061    0.000000
     18          1           0       -1.578540    2.702324    0.000000
     19          1           0       -2.126644    1.112251    0.000000
     20          1           0       -3.300240   -1.462536    0.000000
     21          1           0       -2.856168   -3.924353    0.000000
     22          1           0       -0.483458   -4.727231    0.000000
     23          1           0        1.333310   -3.099149    0.000000
     24          1           0        2.046697   -1.006739    0.859585
     25          1           0        2.046697   -1.006739   -0.859585
 ---------------------------------------------------------------------

 SCF Done:  E(RM062X) =  -539.701901235     A.U. after   15 cycles

 Excitation energies and oscillator strengths:

 Excited State   1:      Singlet-A'     2.9643 eV  418.25 nm  f=0.0319  <S**2>=0.000
      47 -> 48         0.70316
 This state for optimization and/or second-order correction.
 Total Energy, E(TD-HF/TD-DFT) =  -539.592964358
 Copying the excited state density for this state as the 1-particle RhoCI density.

 The electronic state is 1-A'.
 Alpha  occ. eigenvalues --  -10.77389 -10.75023 -10.73208 -10.72594 -10.72545
 Alpha  occ. eigenvalues --  -10.72534 -10.72341 -10.72144 -10.71835 -10.71494
 Alpha  occ. eigenvalues --  -10.70530 -10.70013 -10.70011 -10.69434  -1.16417
 Alpha  occ. eigenvalues --   -1.12106  -1.06520  -1.05221  -1.01080  -0.99955
 Alpha  occ. eigenvalues --   -0.95224  -0.90386  -0.87186  -0.84962  -0.83421
 Alpha  occ. eigenvalues --   -0.77729  -0.75513  -0.73600  -0.70279  -0.69260
 Alpha  occ. eigenvalues --   -0.67785  -0.67436  -0.67108  -0.64070  -0.63581
 Alpha  occ. eigenvalues --   -0.62098  -0.61328  -0.59934  -0.59333  -0.58510
 Alpha  occ. eigenvalues --   -0.56097  -0.55429  -0.54445  -0.52081  -0.46575
 Alpha  occ. eigenvalues --   -0.45858  -0.44532
 Alpha virt. eigenvalues --   -0.25597  -0.15142  -0.14315  -0.13156  -0.11267
 Alpha virt. eigenvalues --   -0.10196  -0.09256  -0.08044  -0.07971  -0.07543
 Alpha virt. eigenvalues --   -0.07214  -0.07027  -0.05798  -0.05632  -0.05296

 Mulliken charges:
               1
     1  C   -0.338897
     2  C   -0.331938
     3  C   -0.523092
     4  C    0.096030
     5  C   -0.337179
     6  C   -0.485101
     7  C   -0.289459
     8  C    0.285778
     9  C   -0.679690
    10  C   -0.155912
    11  C   -0.371529
    12  C    1.101054
    13  C   -0.068868
    14  C    0.442667
    15  H    0.270028
    16  H    0.255811
    17  H    0.266159
    18  H    0.208924
    19  H    0.168239
    20  H    0.235954
    21  H    0.251241
    22  H    0.254830
    23  H    0.241873
    24  H    0.251539
    25  H    0.251539
 Sum of Mulliken charges =   1.00000

 Dipole moment (field-independent basis, Debye):
    X=             -0.1015    Y=              0.4502    Z=              0.0000  Tot=              0.4615
 Quadrupole moment (field-independent basis, Debye-Ang):
   XX=            -52.8883   YY=            -33.3721   ZZ=            -84.7282
   XY=              8.9195   XZ=              0.0000   YZ=             -0.0000

 Normal termination of Gaussian 16 at Tue Aug  2 13:38:59 2022.
