 Gaussian 16, Revision C.01,
 Gaussian 16:  ES64L-G16RevC.01  3-Jul-2019

 ---------------------------------------------------------------
 #n M062X/6-311++G(d,p) TD(NStates=1) EmpiricalDispersion=GD3 SP
 ---------------------------------------------------------------

 ----
 SP_4
 ----
 Symbolic Z-matrix:
 Charge =  1 Multiplicity = 1

                         Standard orientation:
 ---------------------------------------------------------------------
 Center     Atomic      Atomic             Coordinates (Angstroms)
 Number     Number       Type             X           Y           Z
 ---------------------------------------------------------------------
      1          6           0        2.647844   -1.346452    0.000000
      2          6           0        3.767207   -0.483536    0.000000
      3          6           0        3.606338    0.903590    0.000000
      4          6           0        2.317968    1.423982    0.000000
      5          6           0       -2.464863    1.409104    0.000000
      6          6           0       -3.699307    0.722860    0.000000
      7          6           0       -3.705849   -0.659306    0.000000
      8          6           0       -2.494217   -1.351854    0.000000
      9          6           0        0.012366   -1.545294    0.000000
     10          6           0        0.000000    1.337515    0.000000
     11          6           0        1.319410   -0.817129    0.000000
     12          6           0        1.199123    0.596789    0.000000
     13          6           0       -1.243329   -0.695658    0.000000
     14          6           0       -1.254175    0.704245    0.000000
     15          1           0        2.814911   -2.426812    0.000000
     16          1           0        4.768239   -0.903122    0.000000
     17          1           0        4.465815    1.567830    0.000000
     18          1           0        2.156722    2.503752    0.000000
     19          1           0        0.080456    2.414231    0.000000
     20          1           0       -2.454925    2.491984    0.000000
     21          1           0       -4.629028    1.282584    0.000000
     22          1           0       -4.633245   -1.209942    0.000000
     23          1           0       -2.509951   -2.435535    0.000000
     24          1           0       -0.055044   -2.239051    0.859585
     25          1           0       -0.055044   -2.239051   -0.859585
 ---------------------------------------------------------------------

 SCF Done:  E(RM062X) =  -539.751920127     A.U. after   15 cycles

 Excitation energies and oscillator strengths:

 Excited State   1:      Singlet-A'     2.9596 eV  418.92 nm  f=0.0313  <S**2>=0.000
      47 -> 48         0.70341
 This state for optimization and/or second-order correction.
 Total Energy, E(TD-HF/TD-DFT) =  -539.643156797
 Copying the excited state density for this state as the 1-particle RhoCI density.

 The electronic state is 1-A'.
 Alpha  occ. eigenvalues --  -10.76981 -10.74058 -10.73406 -10.72063 -10.72030
 Alpha  occ. eigenvalues --  -10.71676 -10.71599 -10.71529 -10.71267 -10.71053
 Alpha  occ. eigenvalues --  -10.70881 -10.69930 -10.69796 -10.69694  -1.16420
 Alpha  occ. eigenvalues --   -1.12325  -1.06828  -1.05442  -1.01196  -1.00142
 Alpha  occ. eigenvalues --   -0.95615  -0.90887  -0.86668  -0.85637  -0.83706
 Alpha  occ. eigenvalues --   -0.78192  -0.75774  -0.74189  -0.69835  -0.69252
 Alpha  occ. eigenvalues --   -0.68152  -0.67957  -0.67655  -0.64376  -0.63912
 Alpha  occ. eigenvalues --   -0.63099  -0.61891  -0.60195  -0.59552  -0.58946
 Alpha  occ. eigenvalues --   -0.56730  -0.55238  -0.54819  -0.52308  -0.46622
 Alpha  occ. eigenvalues --   -0.45947  -0.44698
 Alpha virt. eigenvalues --   -0.25768  -0.14785  -0.14123  -0.12931  -0.11175
 Alpha virt. eigenvalues --   -0.10108  -0.09242  -0.07987  -0.07954  -0.07485
 Alpha virt. eigenvalues --   -0.07150  -0.07026  -0.05697  -0.05600  -0.05303

 Mulliken charges:
               1
     1  C   -0.107315
     2  C   -0.383114
     3  C   -0.449811
     4  C    0.116130
     5  C   -0.089135
     6  C   -0.480908
     7  C   -0.345811
     8  C    0.151856
     9  C   -0.468228
    10  C   -0.044410
    11  C   -0.494619
    12  C    0.836838
    13  C   -0.449732
    14  C    0.592234
    15  H    0.249793
    16  H    0.252499
    17  H    0.256110
    18  H    0.222684
    19  H    0.155605
    20  H    0.232026
    21  H    0.250577
    22  H    0.253596
    23  H    0.239983
    24  H    0.251576
    25  H    0.251576
 Sum of Mulliken charges =   1.00000

 Dipole moment (field-independent basis, Debye):
    X=              0.1235    Y=              0.2394    Z=             -0.0000  Tot=              0.2694
 Quadrupole moment (field-independent basis, Debye-Ang):
   XX=            -30.4482   YY=            -56.3564   ZZ=            -84.3112
   XY=              0.2797   XZ=              0.0000   YZ=              0.0000

 Normal termination of Gaussian 16 at Tue Aug  2 13:03:40 2022.
