 Gaussian 16, Revision C.01,
 Gaussian 16:  ES64L-G16RevC.01  3-Jul-2019

 ---------------------------------------------------------------
 #n M062X/6-311++G(d,p) TD(NStates=1) EmpiricalDispersion=GD3 SP
 ---------------------------------------------------------------

 ----
 SP_8
 ----
 Symbolic Z-matrix:
 Charge =  1 Multiplicity = 1

                         Standard orientation:
 ---------------------------------------------------------------------
 Center     Atomic      Atomic             Coordinates (Angstroms)
 Number     Number       Type             X           Y           Z
 ---------------------------------------------------------------------
      1          6           0        2.299361    2.049450    0.000000
      2          6           0        1.772728    3.395547    0.000000
      3          6           0        0.386494    3.668947    0.000000
      4          6           0       -0.475372    2.579789    0.000000
      5          6           0       -2.258476   -1.756429    0.000000
      6          6           0       -2.079899   -3.168151    0.000000
      7          6           0       -0.798437   -3.674904    0.000000
      8          6           0        0.289686   -2.798792    0.000000
      9          6           0        1.492826   -0.594464    0.000000
     10          6           0       -1.177405    0.494300    0.000000
     11          6           0        1.387259    0.910912    0.000000
     12          6           0        0.000000    1.267020    0.000000
     13          6           0        0.163825   -1.389899    0.000000
     14          6           0       -1.141012   -0.905410    0.000000
     15          1           0        3.407420    1.918782    0.000000
     16          1           0        2.470062    4.245853    0.000000
     17          1           0        0.003035    4.696905    0.000000
     18          1           0       -1.579329    2.719396    0.000000
     19          1           0       -2.109698    1.058248    0.000000
     20          1           0       -3.260007   -1.344218    0.000000
     21          1           0       -2.944366   -3.829771    0.000000
     22          1           0       -0.614447   -4.736710    0.000000
     23          1           0        1.288417   -3.220431    0.000000
     24          1           0        2.084723   -0.987783    0.859585
     25          1           0        2.084723   -0.987783   -0.859585
 ---------------------------------------------------------------------

 SCF Done:  E(RM062X) =  -539.716316921     A.U. after   15 cycles

 Excitation energies and oscillator strengths:

 Excited State   1:      Singlet-A'     3.0248 eV  409.89 nm  f=0.0325  <S**2>=0.000
      47 -> 48         0.70278
 This state for optimization and/or second-order correction.
 Total Energy, E(TD-HF/TD-DFT) =  -539.605158106
 Copying the excited state density for this state as the 1-particle RhoCI density.

 The electronic state is 1-A'.
 Alpha  occ. eigenvalues --  -10.76808 -10.75003 -10.73409 -10.72517 -10.72461
 Alpha  occ. eigenvalues --  -10.72455 -10.72148 -10.71848 -10.71660 -10.71644
 Alpha  occ. eigenvalues --  -10.70651 -10.70101 -10.69909 -10.69735  -1.16407
 Alpha  occ. eigenvalues --   -1.12057  -1.06530  -1.05171  -1.01009  -0.99966
 Alpha  occ. eigenvalues --   -0.95263  -0.90478  -0.86982  -0.85219  -0.83424
 Alpha  occ. eigenvalues --   -0.77781  -0.75464  -0.73652  -0.70250  -0.69208
 Alpha  occ. eigenvalues --   -0.67737  -0.67533  -0.67179  -0.64002  -0.63590
 Alpha  occ. eigenvalues --   -0.62362  -0.61547  -0.60126  -0.59306  -0.58596
 Alpha  occ. eigenvalues --   -0.56370  -0.55357  -0.54480  -0.52090  -0.46553
 Alpha  occ. eigenvalues --   -0.45798  -0.44667
 Alpha virt. eigenvalues --   -0.25508  -0.15114  -0.14263  -0.13167  -0.11235
 Alpha virt. eigenvalues --   -0.10166  -0.09254  -0.08027  -0.07943  -0.07517
 Alpha virt. eigenvalues --   -0.07185  -0.06960  -0.05779  -0.05638  -0.05296

 Mulliken charges:
               1
     1  C   -0.315524
     2  C   -0.342935
     3  C   -0.493130
     4  C    0.155092
     5  C   -0.191306
     6  C   -0.499525
     7  C   -0.305152
     8  C    0.235017
     9  C   -0.609767
    10  C   -0.126807
    11  C   -0.378127
    12  C    1.009741
    13  C   -0.236146
    14  C    0.466165
    15  H    0.268774
    16  H    0.254259
    17  H    0.265497
    18  H    0.225804
    19  H    0.132216
    20  H    0.237431
    21  H    0.251981
    22  H    0.252355
    23  H    0.241639
    24  H    0.251224
    25  H    0.251224
 Sum of Mulliken charges =   1.00000

 Dipole moment (field-independent basis, Debye):
    X=             -0.1269    Y=              0.4234    Z=             -0.0000  Tot=              0.4421
 Quadrupole moment (field-independent basis, Debye-Ang):
   XX=            -52.7850   YY=            -33.3605   ZZ=            -84.6813
   XY=              9.0211   XZ=              0.0000   YZ=              0.0000

 Normal termination of Gaussian 16 at Tue Aug  2 13:25:46 2022.
