 Gaussian 16, Revision C.01,
 Gaussian 16:  ES64L-G16RevC.01  3-Jul-2019

 ---------------------------------------------------------------
 #n M062X/6-311++G(d,p) TD(NStates=1) EmpiricalDispersion=GD3 SP
 ---------------------------------------------------------------

 ----
 SP_8
 ----
 Symbolic Z-matrix:
 Charge =  1 Multiplicity = 1

                         Standard orientation:
 ---------------------------------------------------------------------
 Center     Atomic      Atomic             Coordinates (Angstroms)
 Number     Number       Type             X           Y           Z
 ---------------------------------------------------------------------
      1          6           0       -2.223971   -1.878264    0.000000
      2          6           0       -1.941272   -3.240769    0.000000
      3          6           0       -0.610625   -3.659345    0.000000
      4          6           0        0.423128   -2.744101    0.000000
      5          6           0        2.271840    1.979357    0.000000
      6          6           0        1.808736    3.363971    0.000000
      7          6           0        0.460472    3.686122    0.000000
      8          6           0       -0.426571    2.607554    0.000000
      9          6           0       -1.270789    0.489585    0.000000
     10          6           0        1.415207   -0.559683    0.000000
     11          6           0       -1.156934   -0.958081    0.000000
     12          6           0        0.208395   -1.368988    0.000000
     13          6           0        0.000000    1.270167    0.000000
     14          6           0        1.338870    0.880268    0.000000
     15          1           0       -3.247337   -1.523006    0.000000
     16          1           0       -2.734491   -3.977315    0.000000
     17          1           0       -0.374609   -4.708176    0.000000
     18          1           0        1.447932   -3.093298    0.000000
     19          1           0        2.370774   -1.115227    0.000000
     20          1           0        3.360433    1.807845    0.000000
     21          1           0        2.554851    4.162218    0.000000
     22          1           0        0.098282    4.718460    0.000000
     23          1           0       -1.517909    2.773475    0.000000
     24          1           0       -1.868423    0.874132    0.859585
     25          1           0       -1.868423    0.874132   -0.859585
 ---------------------------------------------------------------------

 SCF Done:  E(RM062X) =  -539.714415175     A.U. after   15 cycles

 Excitation energies and oscillator strengths:

 Excited State   1:      Singlet-A'     2.5811 eV  480.35 nm  f=0.0268  <S**2>=0.000
      47 -> 48         0.70451
 This state for optimization and/or second-order correction.
 Total Energy, E(TD-HF/TD-DFT) =  -539.619561653
 Copying the excited state density for this state as the 1-particle RhoCI density.

 The electronic state is 1-A'.
 Alpha  occ. eigenvalues --  -10.79021 -10.73700 -10.73282 -10.72966 -10.72753
 Alpha  occ. eigenvalues --  -10.72726 -10.71265 -10.71038 -10.70977 -10.70813
 Alpha  occ. eigenvalues --  -10.70543 -10.70388 -10.69693 -10.69221  -1.16431
 Alpha  occ. eigenvalues --   -1.12240  -1.06675  -1.05828  -1.01284  -1.00006
 Alpha  occ. eigenvalues --   -0.95395  -0.90618  -0.87005  -0.85179  -0.83407
 Alpha  occ. eigenvalues --   -0.78027  -0.75856  -0.73930  -0.69570  -0.69225
 Alpha  occ. eigenvalues --   -0.68653  -0.68170  -0.67748  -0.64695  -0.64236
 Alpha  occ. eigenvalues --   -0.62193  -0.60970  -0.59747  -0.59206  -0.58897
 Alpha  occ. eigenvalues --   -0.56549  -0.55383  -0.54313  -0.52296  -0.46623
 Alpha  occ. eigenvalues --   -0.46009  -0.43857
 Alpha virt. eigenvalues --   -0.26345  -0.15045  -0.14388  -0.12794  -0.11297
 Alpha virt. eigenvalues --   -0.10152  -0.09225  -0.08101  -0.08041  -0.07556
 Alpha virt. eigenvalues --   -0.07354  -0.07349  -0.05726  -0.05608  -0.05370

 Mulliken charges:
               1
     1  C   -0.372393
     2  C   -0.319998
     3  C   -0.323815
     4  C    0.091519
     5  C   -0.012089
     6  C   -0.449438
     7  C   -0.394148
     8  C    0.320398
     9  C   -0.467823
    10  C   -0.189509
    11  C   -0.418396
    12  C    0.724035
    13  C    0.119741
    14  C    0.007899
    15  H    0.225177
    16  H    0.260298
    17  H    0.250451
    18  H    0.195159
    19  H    0.232063
    20  H    0.258807
    21  H    0.244637
    22  H    0.266203
    23  H    0.246648
    24  H    0.252286
    25  H    0.252286
 Sum of Mulliken charges =   1.00000

 Dipole moment (field-independent basis, Debye):
    X=              0.0826    Y=             -0.0822    Z=              0.0000  Tot=              0.1165
 Quadrupole moment (field-independent basis, Debye-Ang):
   XX=            -53.0376   YY=            -34.4843   ZZ=            -84.5075
   XY=              8.0277   XZ=             -0.0000   YZ=              0.0000

 Normal termination of Gaussian 16 at Tue Aug  2 13:34:32 2022.
