 Gaussian 16, Revision C.01,
 Gaussian 16:  ES64L-G16RevC.01  3-Jul-2019

 ---------------------------------------------------------------
 #n M062X/6-311++G(d,p) TD(NStates=1) EmpiricalDispersion=GD3 SP
 ---------------------------------------------------------------

 -----
 SP_-4
 -----
 Symbolic Z-matrix:
 Charge =  1 Multiplicity = 1

                         Standard orientation:
 ---------------------------------------------------------------------
 Center     Atomic      Atomic             Coordinates (Angstroms)
 Number     Number       Type             X           Y           Z
 ---------------------------------------------------------------------
      1          6           0        2.485675   -1.312132   -0.006369
      2          6           0        3.697971   -0.657077   -0.019345
      3          6           0        3.687956    0.696988    0.050845
      4          6           0        2.470646    1.379227   -0.006997
      5          6           0       -2.456034    1.359340   -0.019985
      6          6           0       -3.679794    0.763706    0.019970
      7          6           0       -3.704983   -0.615703   -0.019277
      8          6           0       -2.499964   -1.349243    0.012080
      9          6           0       -0.007493   -1.442679    0.061463
     10          6           0        0.007212    1.374245   -0.041282
     11          6           0        1.258316   -0.686028   -0.028866
     12          6           0        1.241310    0.719139   -0.020229
     13          6           0       -1.265824   -0.706561    0.024442
     14          6           0       -1.233782    0.708674   -0.014686
     15          1           0        2.475055   -2.392199   -0.055081
     16          1           0        4.630185   -1.162175   -0.109882
     17          1           0        4.616678    1.268547    0.103024
     18          1           0        2.481364    2.530509    0.045194
     19          1           0        0.013276    2.462228    0.007836
     20          1           0       -2.454452    2.414785    0.027561
     21          1           0       -4.602003    1.270573    0.132578
     22          1           0       -4.643710   -1.182849   -0.101236
     23          1           0       -2.501651   -2.477302   -0.039013
     24          1           0        0.000484   -2.103729    0.877756
     25          1           0       -0.022494   -2.019762   -0.839313
 ---------------------------------------------------------------------

 SCF Done:  E(RM062X) =  -539.741458254     A.U. after   15 cycles

 Excitation energies and oscillator strengths:

 Excited State   1:      Singlet-A      2.9641 eV  418.29 nm  f=0.0282  <S**2>=0.000
      47 -> 48         0.70380
 This state for optimization and/or second-order correction.
 Total Energy, E(TD-HF/TD-DFT) =  -539.632530377
 Copying the excited state density for this state as the 1-particle RhoCI density.

 The electronic state is 1-A.
 Alpha  occ. eigenvalues --  -10.77121 -10.72981 -10.72699 -10.72169 -10.72045
 Alpha  occ. eigenvalues --  -10.71954 -10.71489 -10.70632 -10.70524 -10.70328
 Alpha  occ. eigenvalues --  -10.70015 -10.69395 -10.69365 -10.69164  -1.17149
 Alpha  occ. eigenvalues --   -1.13257  -1.07737  -1.06445  -1.01478  -1.00937
 Alpha  occ. eigenvalues --   -0.96083  -0.91892  -0.86399  -0.86129  -0.83691
 Alpha  occ. eigenvalues --   -0.78843  -0.76675  -0.74311  -0.70497  -0.69873
 Alpha  occ. eigenvalues --   -0.69178  -0.68220  -0.67766  -0.64924  -0.63838
 Alpha  occ. eigenvalues --   -0.63189  -0.61777  -0.60952  -0.60295  -0.59353
 Alpha  occ. eigenvalues --   -0.56216  -0.55615  -0.54005  -0.52737  -0.47133
 Alpha  occ. eigenvalues --   -0.46096  -0.44966
 Alpha virt. eigenvalues --   -0.25951  -0.14284  -0.14066  -0.12394  -0.11185
 Alpha virt. eigenvalues --   -0.09993  -0.09290  -0.08178  -0.07932  -0.07459
 Alpha virt. eigenvalues --   -0.07176  -0.07056  -0.05644  -0.05564  -0.05258

 Mulliken charges:
               1
     1  C    0.064055
     2  C   -0.352842
     3  C   -0.455457
     4  C    0.165629
     5  C    0.071002
     6  C   -0.425991
     7  C   -0.408581
     8  C    0.050382
     9  C   -0.373613
    10  C    0.083888
    11  C   -0.687442
    12  C    0.796576
    13  C   -0.704205
    14  C    0.595934
    15  H    0.227830
    16  H    0.252803
    17  H    0.244363
    18  H    0.245146
    19  H    0.174409
    20  H    0.206495
    21  H    0.240330
    22  H    0.259750
    23  H    0.247043
    24  H    0.242750
    25  H    0.239744
 Sum of Mulliken charges =   1.00000

 Dipole moment (field-independent basis, Debye):
    X=             -0.0548    Y=              0.2489    Z=             -0.0109  Tot=              0.2551
 Quadrupole moment (field-independent basis, Debye-Ang):
   XX=            -29.6362   YY=            -58.0330   ZZ=            -83.4997
   XY=              0.3439   XZ=             -0.2122   YZ=              0.7223

 Normal termination of Gaussian 16 at Wed Jul 27 09:45:40 2022.
