 Gaussian 16, Revision C.01,
 Gaussian 16:  ES64L-G16RevC.01  3-Jul-2019

 ---------------------------------------------------------------
 #n M062X/6-311++G(d,p) TD(NStates=1) EmpiricalDispersion=GD3 SP
 ---------------------------------------------------------------

 ----
 SP_2
 ----
 Symbolic Z-matrix:
 Charge =  1 Multiplicity = 1

                         Standard orientation:
 ---------------------------------------------------------------------
 Center     Atomic      Atomic             Coordinates (Angstroms)
 Number     Number       Type             X           Y           Z
 ---------------------------------------------------------------------
      1          6           0       -2.497042   -1.416263   -0.014543
      2          6           0       -3.703733   -0.714231   -0.009621
      3          6           0       -3.682067    0.703703    0.041578
      4          6           0       -2.458755    1.464015    0.002833
      5          6           0        2.467897    1.473917   -0.014554
      6          6           0        3.686118    0.671196   -0.009749
      7          6           0        3.699390   -0.735968   -0.012467
      8          6           0        2.488336   -1.399664    0.016602
      9          6           0       -0.004754   -1.477690    0.031411
     10          6           0        0.004801    1.517879   -0.018722
     11          6           0       -1.263900   -0.652686   -0.040147
     12          6           0       -1.235112    0.756789   -0.013108
     13          6           0        1.259881   -0.646022    0.041599
     14          6           0        1.239902    0.761284   -0.003735
     15          1           0       -2.495582   -2.478230   -0.037294
     16          1           0       -4.640450   -1.268120   -0.061324
     17          1           0       -4.605697    1.271330    0.035110
     18          1           0       -2.460023    2.489291    0.024730
     19          1           0        0.007961    2.586730    0.004217
     20          1           0        2.475370    2.547154    0.008515
     21          1           0        4.612833    1.267142    0.079883
     22          1           0        4.633299   -1.259782   -0.045926
     23          1           0        2.480666   -2.437609   -0.005645
     24          1           0        0.002228   -2.257706   -0.852584
     25          1           0       -0.016375   -2.297753    0.866067
 ---------------------------------------------------------------------

 SCF Done:  E(RM062X) =  -539.721595690     A.U. after   16 cycles

 Excitation energies and oscillator strengths:

 Excited State   1:      Singlet-A      2.5466 eV  486.86 nm  f=0.0282  <S**2>=0.000
      47 -> 48         0.70467
 This state for optimization and/or second-order correction.
 Total Energy, E(TD-HF/TD-DFT) =  -539.628009796
 Copying the excited state density for this state as the 1-particle RhoCI density.

 The electronic state is 1-A.
 Alpha  occ. eigenvalues --  -10.78478 -10.74058 -10.73942 -10.73086 -10.73068
 Alpha  occ. eigenvalues --  -10.72614 -10.71930 -10.71298 -10.71208 -10.70893
 Alpha  occ. eigenvalues --  -10.70457 -10.70422 -10.70248 -10.69986  -1.15284
 Alpha  occ. eigenvalues --   -1.11276  -1.06125  -1.04334  -1.01206  -0.98782
 Alpha  occ. eigenvalues --   -0.95289  -0.89799  -0.86721  -0.85098  -0.84096
 Alpha  occ. eigenvalues --   -0.77771  -0.74835  -0.74500  -0.70185  -0.69584
 Alpha  occ. eigenvalues --   -0.68417  -0.67683  -0.65817  -0.65433  -0.64868
 Alpha  occ. eigenvalues --   -0.61990  -0.60900  -0.58784  -0.58435  -0.58030
 Alpha  occ. eigenvalues --   -0.57837  -0.56758  -0.53206  -0.51806  -0.46374
 Alpha  occ. eigenvalues --   -0.45294  -0.43633
 Alpha virt. eigenvalues --   -0.26356  -0.15599  -0.14120  -0.13423  -0.11214
 Alpha virt. eigenvalues --   -0.10278  -0.09162  -0.08299  -0.07849  -0.07520
 Alpha virt. eigenvalues --   -0.07321  -0.07203  -0.05688  -0.05668  -0.05510

 Mulliken charges:
               1
     1  C   -0.289937
     2  C   -0.253392
     3  C   -0.393133
     4  C   -0.193790
     5  C   -0.215520
     6  C   -0.367593
     7  C   -0.338033
     8  C   -0.120609
     9  C   -0.568957
    10  C   -0.119508
    11  C   -0.076428
    12  C    0.835878
    13  C   -0.306435
    14  C    0.777501
    15  H    0.228590
    16  H    0.262125
    17  H    0.248872
    18  H    0.196886
    19  H    0.211316
    20  H    0.217650
    21  H    0.247004
    22  H    0.255810
    23  H    0.228838
    24  H    0.261710
    25  H    0.271156
 Sum of Mulliken charges =   1.00000

 Dipole moment (field-independent basis, Debye):
    X=             -0.0141    Y=              0.0905    Z=             -0.0069  Tot=              0.0918
 Quadrupole moment (field-independent basis, Debye-Ang):
   XX=            -33.3550   YY=            -53.5457   ZZ=            -85.1222
   XY=              0.1842   XZ=              0.3933   YZ=              0.3585

 Normal termination of Gaussian 16 at Wed Jul 27 11:30:09 2022.
