 Gaussian 16, Revision C.01,
 Gaussian 16:  ES64L-G16RevC.01  3-Jul-2019

 ---------------------------------------------------------------
 #n M062X/6-311++G(d,p) TD(NStates=1) EmpiricalDispersion=GD3 SP
 ---------------------------------------------------------------

 -----
 SP_-2
 -----
 Symbolic Z-matrix:
 Charge =  1 Multiplicity = 1

                         Standard orientation:
 ---------------------------------------------------------------------
 Center     Atomic      Atomic             Coordinates (Angstroms)
 Number     Number       Type             X           Y           Z
 ---------------------------------------------------------------------
      1          6           0        2.489267   -1.304214   -0.013526
      2          6           0        3.699889   -0.629080   -0.008328
      3          6           0        3.686138    0.722908    0.043068
      4          6           0        2.466800    1.352280    0.002037
      5          6           0       -2.459850    1.342333   -0.015978
      6          6           0       -3.682051    0.756507   -0.006901
      7          6           0       -3.703237   -0.608567   -0.010389
      8          6           0       -2.496109   -1.323186    0.016613
      9          6           0       -0.003548   -1.431452    0.030654
     10          6           0        0.003374    1.342253   -0.021099
     11          6           0        1.260041   -0.699529   -0.042100
     12          6           0        1.239289    0.706052   -0.013349
     13          6           0       -1.263741   -0.710558    0.039143
     14          6           0       -1.235725    0.700666   -0.004289
     15          1           0        2.481628   -2.408112   -0.038673
     16          1           0        4.633524   -1.152249   -0.059958
     17          1           0        4.612958    1.273267    0.036931
     18          1           0        2.474236    2.491469    0.028054
     19          1           0        0.006382    2.435067    0.003803
     20          1           0       -2.461146    2.433559    0.008911
     21          1           0       -4.605573    1.273641    0.081531
     22          1           0       -4.640223   -1.162989   -0.045303
     23          1           0       -2.494614   -2.451101   -0.009182
     24          1           0        0.004076   -2.036704    0.869572
     25          1           0       -0.014475   -1.994346   -0.849025
 ---------------------------------------------------------------------

 SCF Done:  E(RM062X) =  -539.735445612     A.U. after   14 cycles

 Excitation energies and oscillator strengths:

 Excited State   1:      Singlet-A      3.0538 eV  406.00 nm  f=0.0279  <S**2>=0.000
      47 -> 48         0.70371
 This state for optimization and/or second-order correction.
 Total Energy, E(TD-HF/TD-DFT) =  -539.623219962
 Copying the excited state density for this state as the 1-particle RhoCI density.

 The electronic state is 1-A.
 Alpha  occ. eigenvalues --  -10.76870 -10.72639 -10.72501 -10.71925 -10.71851
 Alpha  occ. eigenvalues --  -10.71593 -10.71234 -10.70934 -10.70738 -10.70017
 Alpha  occ. eigenvalues --  -10.69536 -10.69468 -10.69116 -10.69011  -1.17625
 Alpha  occ. eigenvalues --   -1.13722  -1.08264  -1.06750  -1.01873  -1.01135
 Alpha  occ. eigenvalues --   -0.96320  -0.92321  -0.86714  -0.86049  -0.83671
 Alpha  occ. eigenvalues --   -0.79141  -0.77046  -0.74275  -0.70962  -0.70869
 Alpha  occ. eigenvalues --   -0.69269  -0.68335  -0.67339  -0.65596  -0.63481
 Alpha  occ. eigenvalues --   -0.62761  -0.61701  -0.61381  -0.60567  -0.59742
 Alpha  occ. eigenvalues --   -0.56459  -0.55631  -0.53323  -0.53032  -0.47499
 Alpha  occ. eigenvalues --   -0.46171  -0.45283
 Alpha virt. eigenvalues --   -0.25896  -0.14308  -0.13725  -0.12173  -0.11180
 Alpha virt. eigenvalues --   -0.09934  -0.09329  -0.08182  -0.07961  -0.07445
 Alpha virt. eigenvalues --   -0.07178  -0.06942  -0.05638  -0.05527  -0.05202

 Mulliken charges:
               1
     1  C    0.028822
     2  C   -0.383870
     3  C   -0.444387
     4  C    0.174454
     5  C    0.110299
     6  C   -0.425832
     7  C   -0.443825
     8  C    0.036806
     9  C   -0.320346
    10  C    0.086591
    11  C   -0.666296
    12  C    0.838242
    13  C   -0.732897
    14  C    0.565656
    15  H    0.238439
    16  H    0.254528
    17  H    0.235514
    18  H    0.244181
    19  H    0.177158
    20  H    0.223917
    21  H    0.233683
    22  H    0.258622
    23  H    0.246676
    24  H    0.231254
    25  H    0.232608
 Sum of Mulliken charges =   1.00000

 Dipole moment (field-independent basis, Debye):
    X=             -0.0276    Y=              0.2880    Z=             -0.0055  Tot=              0.2894
 Quadrupole moment (field-independent basis, Debye-Ang):
   XX=            -28.8106   YY=            -58.9838   ZZ=            -83.1970
   XY=              0.1674   XZ=             -0.3488   YZ=              0.3633

 Normal termination of Gaussian 16 at Wed Jul 27 10:29:38 2022.
