 Gaussian 16, Revision C.01,
 Gaussian 16:  ES64L-G16RevC.01  3-Jul-2019

 ---------------------------------------------------------------
 #n M062X/6-311++G(d,p) TD(NStates=1) EmpiricalDispersion=GD3 SP
 ---------------------------------------------------------------

 ----
 SP_2
 ----
 Symbolic Z-matrix:
 Charge =  1 Multiplicity = 1

                         Standard orientation:
 ---------------------------------------------------------------------
 Center     Atomic      Atomic             Coordinates (Angstroms)
 Number     Number       Type             X           Y           Z
 ---------------------------------------------------------------------
      1          6           0       -2.496110   -1.323184    0.016558
      2          6           0       -3.703238   -0.608564   -0.010471
      3          6           0       -3.682050    0.756510   -0.006983
      4          6           0       -2.459848    1.342335   -0.016033
      5          6           0        2.466800    1.352278    0.002091
      6          6           0        3.686138    0.722906    0.043149
      7          6           0        3.699889   -0.629082   -0.008246
      8          6           0        2.489266   -1.304215   -0.013471
      9          6           0       -0.003549   -1.431452    0.030654
     10          6           0        0.003375    1.342253   -0.021099
     11          6           0       -1.263743   -0.710557    0.039116
     12          6           0       -1.235724    0.700667   -0.004316
     13          6           0        1.260041   -0.699529   -0.042072
     14          6           0        1.239290    0.706051   -0.013321
     15          1           0       -2.494615   -2.451100   -0.009236
     16          1           0       -4.640223   -1.162986   -0.045406
     17          1           0       -4.605574    1.273645    0.081428
     18          1           0       -2.461145    2.433561    0.008856
     19          1           0        0.006384    2.435067    0.003803
     20          1           0        2.474237    2.491467    0.028108
     21          1           0        4.612958    1.273264    0.037033
     22          1           0        4.633525   -1.152252   -0.059856
     23          1           0        2.481627   -2.408114   -0.038617
     24          1           0       -0.006457   -1.994367   -0.849074
     25          1           0       -0.003944   -2.036683    0.869622
 ---------------------------------------------------------------------

 SCF Done:  E(RM062X) =  -539.735349970     A.U. after   14 cycles

 Excitation energies and oscillator strengths:

 Excited State   1:      Singlet-A      3.0534 eV  406.05 nm  f=0.0279  <S**2>=0.000
      47 -> 48         0.70371
 This state for optimization and/or second-order correction.
 Total Energy, E(TD-HF/TD-DFT) =  -539.623137951
 Copying the excited state density for this state as the 1-particle RhoCI density.

 The electronic state is 1-A.
 Alpha  occ. eigenvalues --  -10.76870 -10.72637 -10.72504 -10.71925 -10.71851
 Alpha  occ. eigenvalues --  -10.71593 -10.71234 -10.70934 -10.70738 -10.70017
 Alpha  occ. eigenvalues --  -10.69537 -10.69467 -10.69116 -10.69011  -1.17625
 Alpha  occ. eigenvalues --   -1.13722  -1.08264  -1.06750  -1.01873  -1.01136
 Alpha  occ. eigenvalues --   -0.96320  -0.92321  -0.86715  -0.86049  -0.83671
 Alpha  occ. eigenvalues --   -0.79141  -0.77049  -0.74275  -0.70968  -0.70868
 Alpha  occ. eigenvalues --   -0.69263  -0.68335  -0.67339  -0.65597  -0.63483
 Alpha  occ. eigenvalues --   -0.62761  -0.61703  -0.61373  -0.60564  -0.59743
 Alpha  occ. eigenvalues --   -0.56458  -0.55630  -0.53322  -0.53032  -0.47500
 Alpha  occ. eigenvalues --   -0.46170  -0.45281
 Alpha virt. eigenvalues --   -0.25896  -0.14310  -0.13725  -0.12173  -0.11180
 Alpha virt. eigenvalues --   -0.09933  -0.09329  -0.08182  -0.07961  -0.07445
 Alpha virt. eigenvalues --   -0.07178  -0.06942  -0.05638  -0.05527  -0.05202

 Mulliken charges:
               1
     1  C    0.038935
     2  C   -0.442685
     3  C   -0.425790
     4  C    0.110476
     5  C    0.175738
     6  C   -0.444975
     7  C   -0.383232
     8  C    0.031740
     9  C   -0.312701
    10  C    0.086488
    11  C   -0.727648
    12  C    0.563289
    13  C   -0.676533
    14  C    0.830082
    15  H    0.246538
    16  H    0.258643
    17  H    0.233677
    18  H    0.223973
    19  H    0.177110
    20  H    0.244253
    21  H    0.235517
    22  H    0.254525
    23  H    0.237858
    24  H    0.232965
    25  H    0.231758
 Sum of Mulliken charges =   1.00000

 Dipole moment (field-independent basis, Debye):
    X=             -0.0275    Y=              0.2880    Z=             -0.0055  Tot=              0.2894
 Quadrupole moment (field-independent basis, Debye-Ang):
   XX=            -28.8101   YY=            -58.9841   ZZ=            -83.1969
   XY=              0.1677   XZ=             -0.3621   YZ=              0.3634

 Normal termination of Gaussian 16 at Wed Jul 27 11:43:57 2022.
