 Gaussian 16, Revision C.01,
 Gaussian 16:  ES64L-G16RevC.01  3-Jul-2019

 ---------------------------------------------------------------
 #n M062X/6-311++G(d,p) TD(NStates=1) EmpiricalDispersion=GD3 SP
 ---------------------------------------------------------------

 ----
 SP_2
 ----
 Symbolic Z-matrix:
 Charge =  1 Multiplicity = 1

                         Standard orientation:
 ---------------------------------------------------------------------
 Center     Atomic      Atomic             Coordinates (Angstroms)
 Number     Number       Type             X           Y           Z
 ---------------------------------------------------------------------
      1          6           0       -2.495925   -1.307672    0.021762
      2          6           0       -3.703221   -0.590942   -0.010586
      3          6           0       -3.682222    0.765335   -0.015060
      4          6           0       -2.460101    1.322068   -0.019203
      5          6           0        2.466705    1.331993    0.004837
      6          6           0        3.686317    0.731499    0.051978
      7          6           0        3.700027   -0.611281   -0.007518
      8          6           0        2.489378   -1.288308   -0.018462
      9          6           0       -0.003355   -1.423746    0.030536
     10          6           0        0.003148    1.312983   -0.021536
     11          6           0       -1.263540   -0.720219    0.052310
     12          6           0       -1.235819    0.691316   -0.002863
     13          6           0        1.259891   -0.708430   -0.056032
     14          6           0        1.239188    0.696845   -0.014932
     15          1           0       -2.494426   -2.446577   -0.004557
     16          1           0       -4.640224   -1.145453   -0.042727
     17          1           0       -4.605511    1.274033    0.089152
     18          1           0       -2.461400    2.424284    0.006203
     19          1           0        0.006134    2.409790    0.003701
     20          1           0        2.474136    2.482173    0.031364
     21          1           0        4.612944    1.274281    0.029893
     22          1           0        4.633587   -1.134342   -0.062154
     23          1           0        2.481743   -2.403198   -0.044110
     24          1           0       -0.007921   -1.950477   -0.848415
     25          1           0       -0.001888   -1.993174    0.870262
 ---------------------------------------------------------------------

 SCF Done:  E(RM062X) =  -539.714501217     A.U. after   14 cycles

 Excitation energies and oscillator strengths:

 Excited State   1:      Singlet-A      3.1221 eV  397.12 nm  f=0.0273  <S**2>=0.000
      47 -> 48         0.70341
 This state for optimization and/or second-order correction.
 Total Energy, E(TD-HF/TD-DFT) =  -539.599766267
 Copying the excited state density for this state as the 1-particle RhoCI density.

 The electronic state is 1-A.
 Alpha  occ. eigenvalues --  -10.76614 -10.72427 -10.72297 -10.71761 -10.71689
 Alpha  occ. eigenvalues --  -10.71567 -10.71248 -10.70929 -10.70739 -10.69965
 Alpha  occ. eigenvalues --  -10.69488 -10.68994 -10.68948 -10.68855  -1.18047
 Alpha  occ. eigenvalues --   -1.14167  -1.08819  -1.07010  -1.02344  -1.01188
 Alpha  occ. eigenvalues --   -0.96530  -0.92729  -0.86982  -0.85915  -0.83697
 Alpha  occ. eigenvalues --   -0.79409  -0.77343  -0.74242  -0.71972  -0.71441
 Alpha  occ. eigenvalues --   -0.69353  -0.68451  -0.66835  -0.66320  -0.63042
 Alpha  occ. eigenvalues --   -0.62260  -0.61847  -0.61601  -0.60798  -0.59878
 Alpha  occ. eigenvalues --   -0.56908  -0.55282  -0.53239  -0.52622  -0.47848
 Alpha  occ. eigenvalues --   -0.46166  -0.45530
 Alpha virt. eigenvalues --   -0.25851  -0.14396  -0.13412  -0.12016  -0.11178
 Alpha virt. eigenvalues --   -0.09887  -0.09369  -0.08245  -0.08009  -0.07435
 Alpha virt. eigenvalues --   -0.07172  -0.06862  -0.05641  -0.05511  -0.05169

 Mulliken charges:
               1
     1  C    0.012250
     2  C   -0.447351
     3  C   -0.418639
     4  C    0.123647
     5  C    0.221380
     6  C   -0.437585
     7  C   -0.368029
     8  C   -0.024000
     9  C   -0.381935
    10  C    0.060688
    11  C   -0.690224
    12  C    0.503476
    13  C   -0.625151
    14  C    0.906615
    15  H    0.248836
    16  H    0.259206
    17  H    0.227416
    18  H    0.226945
    19  H    0.176170
    20  H    0.247830
    21  H    0.228600
    22  H    0.254881
    23  H    0.241119
    24  H    0.228064
    25  H    0.225792
 Sum of Mulliken charges =   1.00000

 Dipole moment (field-independent basis, Debye):
    X=             -0.0283    Y=              0.3249    Z=             -0.0047  Tot=              0.3262
 Quadrupole moment (field-independent basis, Debye-Ang):
   XX=            -28.0261   YY=            -59.9090   ZZ=            -82.8943
   XY=              0.1619   XZ=             -0.4720   YZ=              0.3640

 Normal termination of Gaussian 16 at Wed Jul 27 11:46:12 2022.
