 Gaussian 16, Revision C.01,
 Gaussian 16:  ES64L-G16RevC.01  3-Jul-2019

 ---------------------------------------------------------------
 #n M062X/6-311++G(d,p) TD(NStates=1) EmpiricalDispersion=GD3 SP
 ---------------------------------------------------------------

 ----
 SP_4
 ----
 Symbolic Z-matrix:
 Charge =  1 Multiplicity = 1

                         Standard orientation:
 ---------------------------------------------------------------------
 Center     Atomic      Atomic             Coordinates (Angstroms)
 Number     Number       Type             X           Y           Z
 ---------------------------------------------------------------------
      1          6           0       -2.499968   -1.349236    0.011970
      2          6           0       -3.704984   -0.615692   -0.019440
      3          6           0       -3.679793    0.763716    0.019806
      4          6           0       -2.456030    1.359347   -0.020095
      5          6           0        2.470650    1.379220   -0.006889
      6          6           0        3.687956    0.696978    0.051007
      7          6           0        3.697970   -0.657088   -0.019181
      8          6           0        2.485672   -1.312139   -0.006258
      9          6           0       -0.007500   -1.442679    0.061464
     10          6           0        0.007218    1.374245   -0.041283
     11          6           0       -1.265827   -0.706558    0.024386
     12          6           0       -1.233779    0.708677   -0.014741
     13          6           0        1.258315   -0.686032   -0.028810
     14          6           0        1.241312    0.719136   -0.020174
     15          1           0       -2.501657   -2.477295   -0.039121
     16          1           0       -4.643709   -1.182836   -0.101440
     17          1           0       -4.602005    1.270586    0.132373
     18          1           0       -2.454447    2.414792    0.027450
     19          1           0        0.013283    2.462228    0.007834
     20          1           0        2.481369    2.530503    0.045301
     21          1           0        4.616677    1.268535    0.103227
     22          1           0        4.630186   -1.162188   -0.109676
     23          1           0        2.475051   -2.392206   -0.054969
     24          1           0       -0.006463   -2.019849   -0.839380
     25          1           0       -0.015560   -2.103642    0.877827
 ---------------------------------------------------------------------

 SCF Done:  E(RM062X) =  -539.741340300     A.U. after   15 cycles

 Excitation energies and oscillator strengths:

 Excited State   1:      Singlet-A      2.9636 eV  418.36 nm  f=0.0282  <S**2>=0.000
      47 -> 48         0.70380
 This state for optimization and/or second-order correction.
 Total Energy, E(TD-HF/TD-DFT) =  -539.632430863
 Copying the excited state density for this state as the 1-particle RhoCI density.

 The electronic state is 1-A.
 Alpha  occ. eigenvalues --  -10.77121 -10.72972 -10.72708 -10.72167 -10.72047
 Alpha  occ. eigenvalues --  -10.71955 -10.71489 -10.70631 -10.70525 -10.70328
 Alpha  occ. eigenvalues --  -10.70014 -10.69395 -10.69366 -10.69165  -1.17149
 Alpha  occ. eigenvalues --   -1.13257  -1.07738  -1.06445  -1.01478  -1.00938
 Alpha  occ. eigenvalues --   -0.96083  -0.91892  -0.86399  -0.86129  -0.83691
 Alpha  occ. eigenvalues --   -0.78843  -0.76678  -0.74312  -0.70502  -0.69875
 Alpha  occ. eigenvalues --   -0.69173  -0.68217  -0.67767  -0.64928  -0.63840
 Alpha  occ. eigenvalues --   -0.63191  -0.61780  -0.60936  -0.60292  -0.59356
 Alpha  occ. eigenvalues --   -0.56216  -0.55613  -0.54004  -0.52737  -0.47134
 Alpha  occ. eigenvalues --   -0.46096  -0.44965
 Alpha virt. eigenvalues --   -0.25951  -0.14285  -0.14067  -0.12394  -0.11185
 Alpha virt. eigenvalues --   -0.09993  -0.09290  -0.08178  -0.07932  -0.07459
 Alpha virt. eigenvalues --   -0.07175  -0.07056  -0.05645  -0.05564  -0.05258

 Mulliken charges:
               1
     1  C    0.053161
     2  C   -0.406683
     3  C   -0.425212
     4  C    0.070282
     5  C    0.167724
     6  C   -0.456856
     7  C   -0.353067
     8  C    0.068015
     9  C   -0.361054
    10  C    0.084095
    11  C   -0.686632
    12  C    0.598844
    13  C   -0.714392
    14  C    0.780780
    15  H    0.247275
    16  H    0.259777
    17  H    0.240324
    18  H    0.206498
    19  H    0.174373
    20  H    0.245255
    21  H    0.244371
    22  H    0.252785
    23  H    0.226688
    24  H    0.240188
    25  H    0.243460
 Sum of Mulliken charges =   1.00000

 Dipole moment (field-independent basis, Debye):
    X=             -0.0544    Y=              0.2490    Z=             -0.0111  Tot=              0.2551
 Quadrupole moment (field-independent basis, Debye-Ang):
   XX=            -29.6350   YY=            -58.0335   ZZ=            -83.4995
   XY=              0.3456   XZ=             -0.2388   YZ=              0.7229

 Normal termination of Gaussian 16 at Wed Jul 27 12:22:34 2022.
