 Gaussian 16, Revision C.01,
 Gaussian 16:  ES64L-G16RevC.01  3-Jul-2019

 ---------------------------------------------------------------
 #n M062X/6-311++G(d,p) TD(NStates=1) EmpiricalDispersion=GD3 SP
 ---------------------------------------------------------------

 -----
 SP_-1
 -----
 Symbolic Z-matrix:
 Charge =  1 Multiplicity = 1

                         Standard orientation:
 ---------------------------------------------------------------------
 Center     Atomic      Atomic             Coordinates (Angstroms)
 Number     Number       Type             X           Y           Z
 ---------------------------------------------------------------------
      1          6           0        2.490951   -1.308632   -0.014478
      2          6           0        3.700737   -0.623986   -0.003476
      3          6           0        3.685140    0.731474    0.034315
      4          6           0        2.465044    1.349363    0.005415
      5          6           0       -2.461570    1.344388   -0.012391
      6          6           0       -3.683096    0.748277   -0.016230
      7          6           0       -3.702411   -0.613728   -0.005883
      8          6           0       -2.494372   -1.318121    0.016026
      9          6           0       -0.001774   -1.430564    0.015332
     10          6           0        0.001687    1.341562   -0.010554
     11          6           0        1.260953   -0.702154   -0.041458
     12          6           0        1.238389    0.704385   -0.008995
     13          6           0       -1.262803   -0.707670    0.039982
     14          6           0       -1.236607    0.701692    0.000173
     15          1           0        2.484824   -2.418753   -0.027113
     16          1           0        4.635175   -1.155645   -0.033765
     17          1           0        4.611100    1.274169    0.007309
     18          1           0        2.470896    2.476783    0.018264
     19          1           0        0.003191    2.434590    0.001899
     20          1           0       -2.464351    2.447821    0.000216
     21          1           0       -4.607407    1.274355    0.051932
     22          1           0       -4.638524   -1.161017   -0.018874
     23          1           0       -2.491316   -2.440253    0.003187
     24          1           0        0.004680   -2.025471    0.864647
     25          1           0       -0.009879   -2.004294   -0.854366
 ---------------------------------------------------------------------

 SCF Done:  E(RM062X) =  -539.737322853     A.U. after   14 cycles

 Excitation energies and oscillator strengths:

 Excited State   1:      Singlet-A      3.0581 eV  405.42 nm  f=0.0279  <S**2>=0.000
      47 -> 48         0.70377
 This state for optimization and/or second-order correction.
 Total Energy, E(TD-HF/TD-DFT) =  -539.624937927
 Copying the excited state density for this state as the 1-particle RhoCI density.

 The electronic state is 1-A.
 Alpha  occ. eigenvalues --  -10.76873 -10.72592 -10.72524 -10.71897 -10.71860
 Alpha  occ. eigenvalues --  -10.71426 -10.71105 -10.71096 -10.70857 -10.69894
 Alpha  occ. eigenvalues --  -10.69654 -10.69454 -10.69080 -10.69027  -1.17641
 Alpha  occ. eigenvalues --   -1.13731  -1.08270  -1.06752  -1.01883  -1.01144
 Alpha  occ. eigenvalues --   -0.96330  -0.92324  -0.86730  -0.86056  -0.83671
 Alpha  occ. eigenvalues --   -0.79150  -0.77058  -0.74277  -0.70939  -0.70885
 Alpha  occ. eigenvalues --   -0.69284  -0.68340  -0.67337  -0.65600  -0.63476
 Alpha  occ. eigenvalues --   -0.62776  -0.61668  -0.61409  -0.60563  -0.59791
 Alpha  occ. eigenvalues --   -0.56491  -0.55639  -0.53311  -0.53058  -0.47510
 Alpha  occ. eigenvalues --   -0.46185  -0.45298
 Alpha virt. eigenvalues --   -0.25897  -0.14296  -0.13718  -0.12164  -0.11179
 Alpha virt. eigenvalues --   -0.09931  -0.09329  -0.08169  -0.07962  -0.07445
 Alpha virt. eigenvalues --   -0.07180  -0.06932  -0.05636  -0.05521  -0.05198

 Mulliken charges:
               1
     1  C    0.035631
     2  C   -0.413741
     3  C   -0.440791
     4  C    0.140129
     5  C    0.108610
     6  C   -0.433137
     7  C   -0.448019
     8  C    0.040780
     9  C   -0.271913
    10  C    0.102625
    11  C   -0.677075
    12  C    0.789756
    13  C   -0.736721
    14  C    0.625518
    15  H    0.241396
    16  H    0.255395
    17  H    0.234381
    18  H    0.240273
    19  H    0.179073
    20  H    0.229847
    21  H    0.233492
    22  H    0.257726
    23  H    0.244985
    24  H    0.230371
    25  H    0.231407
 Sum of Mulliken charges =   1.00000

 Dipole moment (field-independent basis, Debye):
    X=             -0.0136    Y=              0.2890    Z=             -0.0029  Tot=              0.2894
 Quadrupole moment (field-independent basis, Debye-Ang):
   XX=            -28.7995   YY=            -58.9924   ZZ=            -83.1983
   XY=              0.0838   XZ=             -0.3562   YZ=              0.1820

 Normal termination of Gaussian 16 at Wed Jul 27 10:50:25 2022.
