 Gaussian 16, Revision C.01,
 Gaussian 16:  ES64L-G16RevC.01  3-Jul-2019

 ---------------------------------------------------------------
 #n M062X/6-311++G(d,p) TD(NStates=1) EmpiricalDispersion=GD3 SP
 ---------------------------------------------------------------

 -----
 SP_-2
 -----
 Symbolic Z-matrix:
 Charge =  1 Multiplicity = 1

                         Standard orientation:
 ---------------------------------------------------------------------
 Center     Atomic      Atomic             Coordinates (Angstroms)
 Number     Number       Type             X           Y           Z
 ---------------------------------------------------------------------
      1          6           0        2.488698   -1.367845    0.006500
      2          6           0        3.699495   -0.700322   -0.011171
      3          6           0        3.685923    0.688465    0.007785
      4          6           0        2.467430    1.433387   -0.009030
      5          6           0       -2.459041    1.423438   -0.003371
      6          6           0       -3.681862    0.721275    0.025456
      7          6           0       -3.703492   -0.679025   -0.009850
      8          6           0       -2.496763   -1.385239   -0.004143
      9          6           0       -0.004343   -1.462278    0.031150
     10          6           0        0.004312    1.459336   -0.019470
     11          6           0        1.260137   -0.663876    0.013698
     12          6           0        1.239697    0.742876   -0.006945
     13          6           0       -1.264048   -0.671958   -0.013679
     14          6           0       -1.235326    0.738078   -0.010137
     15          1           0        2.481040   -2.427776   -0.016692
     16          1           0        4.633346   -1.223923   -0.050700
     17          1           0        4.612915    1.269190    0.065493
     18          1           0        2.474890    2.528608    0.014999
     19          1           0        0.007418    2.536175    0.004114
     20          1           0       -2.460320    2.470699    0.019501
     21          1           0       -4.605704    1.272095    0.050648
     22          1           0       -4.640329   -1.233091   -0.055942
     23          1           0       -2.495290   -2.469189   -0.027886
     24          1           0       -0.004192   -2.210750    0.867215
     25          1           0       -0.008666   -2.169903   -0.851512
 ---------------------------------------------------------------------

 SCF Done:  E(RM062X) =  -539.751568626     A.U. after   15 cycles

 Excitation energies and oscillator strengths:

 Excited State   1:      Singlet-A      2.7307 eV  454.03 nm  f=0.0286  <S**2>=0.000
      47 -> 48         0.70440
 This state for optimization and/or second-order correction.
 Total Energy, E(TD-HF/TD-DFT) =  -539.651215499
 Copying the excited state density for this state as the 1-particle RhoCI density.

 The electronic state is 1-A.
 Alpha  occ. eigenvalues --  -10.77935 -10.73565 -10.73434 -10.72671 -10.72630
 Alpha  occ. eigenvalues --  -10.71782 -10.71531 -10.71252 -10.71078 -10.70815
 Alpha  occ. eigenvalues --  -10.70293 -10.69938 -10.69814 -10.69786  -1.16036
 Alpha  occ. eigenvalues --   -1.12054  -1.06630  -1.05282  -1.01264  -0.99708
 Alpha  occ. eigenvalues --   -0.95600  -0.90630  -0.86525  -0.85594  -0.83918
 Alpha  occ. eigenvalues --   -0.78162  -0.75629  -0.74456  -0.69592  -0.69343
 Alpha  occ. eigenvalues --   -0.68368  -0.68224  -0.67269  -0.64881  -0.64682
 Alpha  occ. eigenvalues --   -0.62362  -0.61916  -0.59518  -0.59367  -0.58706
 Alpha  occ. eigenvalues --   -0.57227  -0.55787  -0.54273  -0.52205  -0.46470
 Alpha  occ. eigenvalues --   -0.45847  -0.44204
 Alpha virt. eigenvalues --   -0.26170  -0.14989  -0.14080  -0.13014  -0.11186
 Alpha virt. eigenvalues --   -0.10148  -0.09202  -0.08069  -0.07923  -0.07490
 Alpha virt. eigenvalues --   -0.07231  -0.07182  -0.05654  -0.05612  -0.05393

 Mulliken charges:
               1
     1  C    0.074351
     2  C   -0.402103
     3  C   -0.444425
     4  C    0.011292
     5  C   -0.043769
     6  C   -0.435150
     7  C   -0.383749
     8  C    0.080293
     9  C   -0.391616
    10  C    0.094037
    11  C   -0.567463
    12  C    0.632434
    13  C   -0.574327
    14  C    0.725771
    15  H    0.230924
    16  H    0.254243
    17  H    0.250427
    18  H    0.227605
    19  H    0.195021
    20  H    0.205876
    21  H    0.250224
    22  H    0.259051
    23  H    0.238491
    24  H    0.258049
    25  H    0.254515
 Sum of Mulliken charges =   1.00000

 Dipole moment (field-independent basis, Debye):
    X=             -0.0205    Y=              0.1546    Z=             -0.0068  Tot=              0.1561
 Quadrupole moment (field-independent basis, Debye-Ang):
   XX=            -31.8844   YY=            -55.3489   ZZ=            -84.4644
   XY=              0.1806   XZ=              0.1390   YZ=              0.3605

 Normal termination of Gaussian 16 at Wed Jul 27 10:20:29 2022.
