 Gaussian 16, Revision C.01,
 Gaussian 16:  ES64L-G16RevC.01  3-Jul-2019

 ---------------------------------------------------------------
 #n M062X/6-311++G(d,p) TD(NStates=1) EmpiricalDispersion=GD3 SP
 ---------------------------------------------------------------

 -----
 SP_-1
 -----
 Symbolic Z-matrix:
 Charge =  1 Multiplicity = 1

                         Standard orientation:
 ---------------------------------------------------------------------
 Center     Atomic      Atomic             Coordinates (Angstroms)
 Number     Number       Type             X           Y           Z
 ---------------------------------------------------------------------
      1          6           0        2.490989   -1.292819   -0.019526
      2          6           0        3.700836   -0.606227   -0.002900
      3          6           0        3.685317    0.740130    0.042960
      4          6           0        2.465036    1.329076    0.008267
      5          6           0       -2.461735    1.324110   -0.015455
      6          6           0       -3.683269    0.757049   -0.024499
      7          6           0       -3.702433   -0.596058   -0.006152
      8          6           0       -2.494261   -1.302505    0.021180
      9          6           0       -0.001676   -1.422851    0.015273
     10          6           0        0.001573    1.312281   -0.010772
     11          6           0        1.260790   -0.711247   -0.055230
     12          6           0        1.238336    0.695139   -0.010567
     13          6           0       -1.262614   -0.717144    0.053371
     14          6           0       -1.236652    0.692372    0.001666
     15          1           0        2.484863   -2.413938   -0.032407
     16          1           0        4.635222   -1.137833   -0.036160
     17          1           0        4.611074    1.275039    0.000021
     18          1           0        2.470885    2.467494    0.021365
     19          1           0        0.003066    2.409308    0.001848
     20          1           0       -2.464518    2.438541   -0.002584
     21          1           0       -4.607356    1.274911    0.059512
     22          1           0       -4.638541   -1.143394   -0.016289
     23          1           0       -2.491204   -2.435635    0.008074
     24          1           0        0.006588   -1.981854    0.864954
     25          1           0       -0.011490   -1.960488   -0.854023
 ---------------------------------------------------------------------

 SCF Done:  E(RM062X) =  -539.716406734     A.U. after   14 cycles

 Excitation energies and oscillator strengths:

 Excited State   1:      Singlet-A      3.1274 eV  396.44 nm  f=0.0273  <S**2>=0.000
      47 -> 48         0.70358
 This state for optimization and/or second-order correction.
 Total Energy, E(TD-HF/TD-DFT) =  -539.601476774
 Copying the excited state density for this state as the 1-particle RhoCI density.

 The electronic state is 1-A.
 Alpha  occ. eigenvalues --  -10.76618 -10.72383 -10.72315 -10.71732 -10.71692
 Alpha  occ. eigenvalues --  -10.71411 -10.71116 -10.71088 -10.70862 -10.69843
 Alpha  occ. eigenvalues --  -10.69604 -10.68980 -10.68915 -10.68868  -1.18064
 Alpha  occ. eigenvalues --   -1.14176  -1.08826  -1.07011  -1.02356  -1.01195
 Alpha  occ. eigenvalues --   -0.96540  -0.92733  -0.86998  -0.85920  -0.83698
 Alpha  occ. eigenvalues --   -0.79418  -0.77351  -0.74241  -0.71975  -0.71433
 Alpha  occ. eigenvalues --   -0.69377  -0.68455  -0.66820  -0.66333  -0.63035
 Alpha  occ. eigenvalues --   -0.62249  -0.61838  -0.61634  -0.60798  -0.59923
 Alpha  occ. eigenvalues --   -0.56945  -0.55289  -0.53259  -0.52615  -0.47859
 Alpha  occ. eigenvalues --   -0.46179  -0.45549
 Alpha virt. eigenvalues --   -0.25851  -0.14382  -0.13404  -0.12006  -0.11177
 Alpha virt. eigenvalues --   -0.09884  -0.09370  -0.08232  -0.08010  -0.07435
 Alpha virt. eigenvalues --   -0.07174  -0.06851  -0.05639  -0.05505  -0.05166

 Mulliken charges:
               1
     1  C   -0.017166
     2  C   -0.405946
     3  C   -0.433539
     4  C    0.169651
     5  C    0.118394
     6  C   -0.428060
     7  C   -0.451227
     8  C    0.006498
     9  C   -0.344185
    10  C    0.083766
    11  C   -0.608551
    12  C    0.846843
    13  C   -0.693095
    14  C    0.590441
    15  H    0.244584
    16  H    0.255719
    17  H    0.227260
    18  H    0.244085
    19  H    0.178645
    20  H    0.232952
    21  H    0.226800
    22  H    0.258414
    23  H    0.247164
    24  H    0.224398
    25  H    0.226153
 Sum of Mulliken charges =   1.00000

 Dipole moment (field-independent basis, Debye):
    X=             -0.0140    Y=              0.3261    Z=             -0.0024  Tot=              0.3264
 Quadrupole moment (field-independent basis, Debye-Ang):
   XX=            -28.0137   YY=            -59.9180   ZZ=            -82.8957
   XY=              0.0809   XZ=             -0.4663   YZ=              0.1823

 Normal termination of Gaussian 16 at Wed Jul 27 10:52:43 2022.
