 Gaussian 16, Revision C.01,
 Gaussian 16:  ES64L-G16RevC.01  3-Jul-2019

 ---------------------------------------------------------------
 #n M062X/6-311++G(d,p) TD(NStates=1) EmpiricalDispersion=GD3 SP
 ---------------------------------------------------------------

 -----
 SP_-3
 -----
 Symbolic Z-matrix:
 Charge =  1 Multiplicity = 1

                         Standard orientation:
 ---------------------------------------------------------------------
 Center     Atomic      Atomic             Coordinates (Angstroms)
 Number     Number       Type             X           Y           Z
 ---------------------------------------------------------------------
      1          6           0        2.485923   -1.412021    0.022334
      2          6           0        3.698210   -0.759199   -0.019131
      3          6           0        3.687259    0.654241   -0.011266
      4          6           0        2.470580    1.497296   -0.020065
      5          6           0       -2.456291    1.482496    0.002987
      6          6           0       -3.681190    0.702785    0.057963
      7          6           0       -3.704992   -0.726261   -0.014769
      8          6           0       -2.499473   -1.436317   -0.019465
      9          6           0       -0.007441   -1.486794    0.047289
     10          6           0        0.007574    1.548188   -0.027528
     11          6           0        1.258683   -0.635837    0.056160
     12          6           0        1.241271    0.772065   -0.006265
     13          6           0       -1.264791   -0.644788   -0.052937
     14          6           0       -1.233767    0.765552   -0.018818
     15          1           0        2.476737   -2.432679   -0.010109
     16          1           0        4.631516   -1.274608   -0.070351
     17          1           0        4.614572    1.263675    0.115533
     18          1           0        2.479704    2.571223    0.014224
     19          1           0        0.012356    2.612741    0.006400
     20          1           0       -2.456088    2.484507    0.034710
     21          1           0       -4.603917    1.270920    0.056062
     22          1           0       -4.642380   -1.286476   -0.090914
     23          1           0       -2.499620   -2.492997   -0.053082
     24          1           0       -0.012161   -2.352169    0.868401
     25          1           0       -0.010046   -2.292573   -0.849806
 ---------------------------------------------------------------------

 SCF Done:  E(RM062X) =  -539.693402998     A.U. after   17 cycles

 Excitation energies and oscillator strengths:

 Excited State   1:      Singlet-A      2.4448 eV  507.14 nm  f=0.0278  <S**2>=0.000
      47 -> 48         0.70472
 This state for optimization and/or second-order correction.
 Total Energy, E(TD-HF/TD-DFT) =  -539.603559564
 Copying the excited state density for this state as the 1-particle RhoCI density.

 The electronic state is 1-A.
 Alpha  occ. eigenvalues --  -10.78747 -10.74360 -10.74189 -10.73320 -10.73309
 Alpha  occ. eigenvalues --  -10.73179 -10.72200 -10.71437 -10.71109 -10.70860
 Alpha  occ. eigenvalues --  -10.70732 -10.70665 -10.70462 -10.69969  -1.14893
 Alpha  occ. eigenvalues --   -1.10891  -1.05903  -1.03849  -1.01154  -0.98322
 Alpha  occ. eigenvalues --   -0.95123  -0.89400  -0.86814  -0.84945  -0.84082
 Alpha  occ. eigenvalues --   -0.77602  -0.74541  -0.74369  -0.70537  -0.69807
 Alpha  occ. eigenvalues --   -0.68484  -0.67382  -0.65646  -0.65157  -0.64736
 Alpha  occ. eigenvalues --   -0.61992  -0.60230  -0.58490  -0.58175  -0.57961
 Alpha  occ. eigenvalues --   -0.57579  -0.57012  -0.52624  -0.51578  -0.46344
 Alpha  occ. eigenvalues --   -0.44970  -0.43325
 Alpha virt. eigenvalues --   -0.26462  -0.15904  -0.14272  -0.13561  -0.11244
 Alpha virt. eigenvalues --   -0.10353  -0.09143  -0.08483  -0.07827  -0.07537
 Alpha virt. eigenvalues --   -0.07387  -0.07186  -0.05737  -0.05694  -0.05571

 Mulliken charges:
               1
     1  C   -0.061393
     2  C   -0.349984
     3  C   -0.336289
     4  C   -0.254611
     5  C   -0.206940
     6  C   -0.379475
     7  C   -0.227690
     8  C   -0.333331
     9  C   -0.628507
    10  C   -0.132852
    11  C   -0.354944
    12  C    0.760523
    13  C   -0.037260
    14  C    0.914318
    15  H    0.226785
    16  H    0.255029
    17  H    0.242621
    18  H    0.217987
    19  H    0.218022
    20  H    0.186811
    21  H    0.247189
    22  H    0.264436
    23  H    0.225063
    24  H    0.282100
    25  H    0.262392
 Sum of Mulliken charges =   1.00000

 Dipole moment (field-independent basis, Debye):
    X=             -0.0149    Y=              0.0564    Z=             -0.0100  Tot=              0.0592
 Quadrupole moment (field-independent basis, Debye-Ang):
   XX=            -34.0921   YY=            -52.6327   ZZ=            -85.4533
   XY=              0.2779   XZ=              0.5467   YZ=              0.5346

 Normal termination of Gaussian 16 at Wed Jul 27 09:52:43 2022.
