 Gaussian 16, Revision C.01,
 Gaussian 16:  ES64L-G16RevC.01  3-Jul-2019

 ---------------------------------------------------------------
 #n M062X/6-311++G(d,p) TD(NStates=1) EmpiricalDispersion=GD3 SP
 ---------------------------------------------------------------

 ----
 SP_4
 ----
 Symbolic Z-matrix:
 Charge =  1 Multiplicity = 1

                         Standard orientation:
 ---------------------------------------------------------------------
 Center     Atomic      Atomic             Coordinates (Angstroms)
 Number     Number       Type             X           Y           Z
 ---------------------------------------------------------------------
      1          6           0       -2.500911   -1.395138   -0.003818
      2          6           0       -3.705446   -0.668202   -0.019897
      3          6           0       -3.679733    0.737075    0.042938
      4          6           0       -2.454911    1.420117   -0.010086
      5          6           0        2.471707    1.439971   -0.014642
      6          6           0        3.687858    0.671472    0.023513
      7          6           0        3.697448   -0.710798   -0.022135
      8          6           0        2.484764   -1.360407    0.008477
      9          6           0       -0.008699   -1.465713    0.062221
     10          6           0        0.008634    1.461938   -0.038880
     11          6           0       -1.266060   -0.676543   -0.014084
     12          6           0       -1.233172    0.736915   -0.018922
     13          6           0        1.258230   -0.660406    0.014097
     14          6           0        1.241923    0.746488   -0.015185
     15          1           0       -2.502635   -2.490300   -0.051863
     16          1           0       -4.643916   -1.234870   -0.109899
     17          1           0       -4.602148    1.270493    0.108367
     18          1           0       -2.453305    2.442661    0.034509
     19          1           0        0.014848    2.537995    0.008268
     20          1           0        2.482466    2.558354    0.034526
     21          1           0        4.616564    1.264640    0.123765
     22          1           0        4.629954   -1.216598   -0.103248
     23          1           0        2.474116   -2.407571   -0.037307
     24          1           0       -0.003038   -2.151951   -0.842965
     25          1           0       -0.022704   -2.233469    0.874263
 ---------------------------------------------------------------------

 SCF Done:  E(RM062X) =  -539.742562596     A.U. after   15 cycles

 Excitation energies and oscillator strengths:

 Excited State   1:      Singlet-A      2.7174 eV  456.26 nm  f=0.0285  <S**2>=0.000
      47 -> 48         0.70435
 This state for optimization and/or second-order correction.
 Total Energy, E(TD-HF/TD-DFT) =  -539.642699570
 Copying the excited state density for this state as the 1-particle RhoCI density.

 The electronic state is 1-A.
 Alpha  occ. eigenvalues --  -10.77928 -10.73674 -10.73422 -10.72725 -10.72645
 Alpha  occ. eigenvalues --  -10.72144 -10.71580 -10.71492 -10.70742 -10.70618
 Alpha  occ. eigenvalues --  -10.70542 -10.70047 -10.69746 -10.69586  -1.15975
 Alpha  occ. eigenvalues --   -1.12028  -1.06621  -1.05263  -1.01220  -0.99677
 Alpha  occ. eigenvalues --   -0.95553  -0.90626  -0.86523  -0.85512  -0.83930
 Alpha  occ. eigenvalues --   -0.78128  -0.75586  -0.74443  -0.69653  -0.69446
 Alpha  occ. eigenvalues --   -0.68259  -0.68155  -0.67229  -0.64891  -0.64586
 Alpha  occ. eigenvalues --   -0.62399  -0.61899  -0.59590  -0.59356  -0.58490
 Alpha  occ. eigenvalues --   -0.57200  -0.55803  -0.54155  -0.52123  -0.46449
 Alpha  occ. eigenvalues --   -0.45773  -0.44157
 Alpha virt. eigenvalues --   -0.26173  -0.15010  -0.14133  -0.13046  -0.11194
 Alpha virt. eigenvalues --   -0.10157  -0.09201  -0.08144  -0.07917  -0.07495
 Alpha virt. eigenvalues --   -0.07265  -0.07162  -0.05661  -0.05631  -0.05409

 Mulliken charges:
               1
     1  C    0.076349
     2  C   -0.356094
     3  C   -0.437080
     4  C   -0.058386
     5  C    0.022070
     6  C   -0.443913
     7  C   -0.396467
     8  C    0.062581
     9  C   -0.443930
    10  C    0.086521
    11  C   -0.568634
    12  C    0.799716
    13  C   -0.597382
    14  C    0.642309
    15  H    0.241037
    16  H    0.260955
    17  H    0.249938
    18  H    0.193315
    19  H    0.190166
    20  H    0.235255
    21  H    0.250248
    22  H    0.252040
    23  H    0.224474
    24  H    0.253132
    25  H    0.261779
 Sum of Mulliken charges =   1.00000

 Dipole moment (field-independent basis, Debye):
    X=             -0.0415    Y=              0.1512    Z=             -0.0127  Tot=              0.1573
 Quadrupole moment (field-independent basis, Debye-Ang):
   XX=            -31.9278   YY=            -55.3177   ZZ=            -84.4570
   XY=              0.3644   XZ=              0.1296   YZ=              0.7193

 Normal termination of Gaussian 16 at Wed Jul 27 12:15:48 2022.
