 Gaussian 16, Revision C.01,
 Gaussian 16:  ES64L-G16RevC.01  3-Jul-2019

 ---------------------------------------------------------------
 #n M062X/6-311++G(d,p) TD(NStates=1) EmpiricalDispersion=GD3 SP
 ---------------------------------------------------------------

 -----
 SP_-3
 -----
 Symbolic Z-matrix:
 Charge =  1 Multiplicity = 1

                         Standard orientation:
 ---------------------------------------------------------------------
 Center     Atomic      Atomic             Coordinates (Angstroms)
 Number     Number       Type             X           Y           Z
 ---------------------------------------------------------------------
      1          6           0        2.487401   -1.316016   -0.007507
      2          6           0        3.698873   -0.651995   -0.014148
      3          6           0        3.686991    0.705698    0.042634
      4          6           0        2.468776    1.375756   -0.003904
      5          6           0       -2.457821    1.360828   -0.016368
      6          6           0       -3.680869    0.755755    0.010491
      7          6           0       -3.704131   -0.620955   -0.014822
      8          6           0       -2.498115   -1.343869    0.011817
      9          6           0       -0.005618   -1.440626    0.046135
     10          6           0        0.005407    1.372658   -0.030990
     11          6           0        1.259224   -0.688279   -0.028537
     12          6           0        1.240347    0.717095   -0.016011
     13          6           0       -1.264854   -0.703689    0.025229
     14          6           0       -1.234703    0.709239   -0.010201
     15          1           0        2.478261   -2.402570   -0.044265
     16          1           0        4.631819   -1.166401   -0.083828
     17          1           0        4.614817    1.270666    0.073550
     18          1           0        2.477839    2.515575    0.034805
     19          1           0        0.009955    2.461129    0.005857
     20          1           0       -2.457659    2.428730    0.019743
     21          1           0       -4.603809    1.272177    0.103220
     22          1           0       -4.641963   -1.181923   -0.074571
     23          1           0       -2.498205   -2.466436   -0.026296
     24          1           0        0.001254   -2.091763    0.873435
     25          1           0       -0.017757   -2.028788   -0.844548
 ---------------------------------------------------------------------

 SCF Done:  E(RM062X) =  -539.746114872     A.U. after   15 cycles

 Excitation energies and oscillator strengths:

 Excited State   1:      Singlet-A      2.9732 eV  417.00 nm  f=0.0282  <S**2>=0.000
      47 -> 48         0.70386
 This state for optimization and/or second-order correction.
 Total Energy, E(TD-HF/TD-DFT) =  -539.636850727
 Copying the excited state density for this state as the 1-particle RhoCI density.

 The electronic state is 1-A.
 Alpha  occ. eigenvalues --  -10.77127 -10.72915 -10.72706 -10.72131 -10.72029
 Alpha  occ. eigenvalues --  -10.71795 -10.71357 -10.70791 -10.70633 -10.70202
 Alpha  occ. eigenvalues --  -10.69984 -10.69479 -10.69345 -10.69170  -1.17187
 Alpha  occ. eigenvalues --   -1.13276  -1.07749  -1.06452  -1.01500  -1.00959
 Alpha  occ. eigenvalues --   -0.96107  -0.91898  -0.86424  -0.86156  -0.83689
 Alpha  occ. eigenvalues --   -0.78864  -0.76704  -0.74316  -0.70449  -0.69894
 Alpha  occ. eigenvalues --   -0.69201  -0.68235  -0.67789  -0.64927  -0.63821
 Alpha  occ. eigenvalues --   -0.63237  -0.61752  -0.60968  -0.60290  -0.59458
 Alpha  occ. eigenvalues --   -0.56244  -0.55672  -0.53992  -0.52790  -0.47153
 Alpha  occ. eigenvalues --   -0.46134  -0.45000
 Alpha virt. eigenvalues --   -0.25951  -0.14254  -0.14052  -0.12373  -0.11182
 Alpha virt. eigenvalues --   -0.09987  -0.09291  -0.08146  -0.07933  -0.07456
 Alpha virt. eigenvalues --   -0.07181  -0.07036  -0.05640  -0.05552  -0.05249

 Mulliken charges:
               1
     1  C    0.067216
     2  C   -0.372482
     3  C   -0.452504
     4  C    0.149366
     5  C    0.076602
     6  C   -0.428128
     7  C   -0.422023
     8  C    0.056463
     9  C   -0.333151
    10  C    0.090772
    11  C   -0.688630
    12  C    0.790425
    13  C   -0.722456
    14  C    0.602760
    15  H    0.231938
    16  H    0.253453
    17  H    0.242954
    18  H    0.243045
    19  H    0.177209
    20  H    0.213522
    21  H    0.239815
    22  H    0.259082
    23  H    0.245899
    24  H    0.239987
    25  H    0.238866
 Sum of Mulliken charges =   1.00000

 Dipole moment (field-independent basis, Debye):
    X=             -0.0403    Y=              0.2514    Z=             -0.0087  Tot=              0.2548
 Quadrupole moment (field-independent basis, Debye-Ang):
   XX=            -29.6092   YY=            -58.0533   ZZ=            -83.5033
   XY=              0.2580   XZ=             -0.2241   YZ=              0.5430

 Normal termination of Gaussian 16 at Wed Jul 27 10:06:41 2022.
