 Gaussian 16, Revision C.01,
 Gaussian 16:  ES64L-G16RevC.01  3-Jul-2019

 ---------------------------------------------------------------
 #n M062X/6-311++G(d,p) TD(NStates=1) EmpiricalDispersion=GD3 SP
 ---------------------------------------------------------------

 -----
 SP_-3
 -----
 Symbolic Z-matrix:
 Charge =  1 Multiplicity = 1

                         Standard orientation:
 ---------------------------------------------------------------------
 Center     Atomic      Atomic             Coordinates (Angstroms)
 Number     Number       Type             X           Y           Z
 ---------------------------------------------------------------------
      1          6           0        2.486205   -1.396019    0.017340
      2          6           0        3.698284   -0.741317   -0.018327
      3          6           0        3.687088    0.662845   -0.002300
      4          6           0        2.470213    1.477052   -0.017346
      5          6           0       -2.456500    1.462203   -0.000211
      6          6           0       -3.681012    0.711587    0.050036
      7          6           0       -3.704799   -0.708723   -0.014802
      8          6           0       -2.499264   -1.420909   -0.014270
      9          6           0       -0.007130   -1.479099    0.047091
     10          6           0        0.007200    1.518932   -0.028065
     11          6           0        1.258900   -0.644596    0.042061
     12          6           0        1.241115    0.762905   -0.007878
     13          6           0       -1.264927   -0.654588   -0.039891
     14          6           0       -1.233931    0.756165   -0.017370
     15          1           0        2.477027   -2.427660   -0.015801
     16          1           0        4.631552   -1.256560   -0.072622
     17          1           0        4.614637    1.264845    0.108529
     18          1           0        2.479326    2.561962    0.017658
     19          1           0        0.011941    2.587472    0.006339
     20          1           0       -2.456305    2.475198    0.032222
     21          1           0       -4.603931    1.271125    0.063917
     22          1           0       -4.642279   -1.269063   -0.088213
     23          1           0       -2.499401   -2.488571   -0.048615
     24          1           0       -0.009907   -2.308764    0.869189
     25          1           0       -0.011313   -2.248610   -0.849000
 ---------------------------------------------------------------------

 SCF Done:  E(RM062X) =  -539.717463045     A.U. after   16 cycles

 Excitation energies and oscillator strengths:

 Excited State   1:      Singlet-A      2.5410 eV  487.94 nm  f=0.0282  <S**2>=0.000
      47 -> 48         0.70463
 This state for optimization and/or second-order correction.
 Total Energy, E(TD-HF/TD-DFT) =  -539.624083250
 Copying the excited state density for this state as the 1-particle RhoCI density.

 The electronic state is 1-A.
 Alpha  occ. eigenvalues --  -10.78475 -10.74111 -10.73929 -10.73106 -10.73077
 Alpha  occ. eigenvalues --  -10.72634 -10.72114 -10.71409 -10.71034 -10.70802
 Alpha  occ. eigenvalues --  -10.70580 -10.70478 -10.70218 -10.69874  -1.15260
 Alpha  occ. eigenvalues --   -1.11267  -1.06122  -1.04328  -1.01184  -0.98772
 Alpha  occ. eigenvalues --   -0.95269  -0.89799  -0.86721  -0.85071  -0.84097
 Alpha  occ. eigenvalues --   -0.77758  -0.74827  -0.74488  -0.70216  -0.69583
 Alpha  occ. eigenvalues --   -0.68398  -0.67669  -0.65800  -0.65436  -0.64820
 Alpha  occ. eigenvalues --   -0.61992  -0.60922  -0.58790  -0.58490  -0.57904
 Alpha  occ. eigenvalues --   -0.57822  -0.56753  -0.53162  -0.51773  -0.46359
 Alpha  occ. eigenvalues --   -0.45269  -0.43614
 Alpha virt. eigenvalues --   -0.26358  -0.15608  -0.14143  -0.13437  -0.11218
 Alpha virt. eigenvalues --   -0.10282  -0.09161  -0.08324  -0.07854  -0.07523
 Alpha virt. eigenvalues --   -0.07342  -0.07186  -0.05699  -0.05670  -0.05516

 Mulliken charges:
               1
     1  C   -0.085419
     2  C   -0.348014
     3  C   -0.360899
     4  C   -0.211423
     5  C   -0.172685
     6  C   -0.404438
     7  C   -0.229288
     8  C   -0.336164
     9  C   -0.577384
    10  C   -0.126988
    11  C   -0.327461
    12  C    0.775116
    13  C   -0.050317
    14  C    0.829717
    15  H    0.226917
    16  H    0.254435
    17  H    0.246369
    18  H    0.222308
    19  H    0.208809
    20  H    0.191246
    21  H    0.249194
    22  H    0.263537
    23  H    0.226705
    24  H    0.275688
    25  H    0.260439
 Sum of Mulliken charges =   1.00000

 Dipole moment (field-independent basis, Debye):
    X=             -0.0211    Y=              0.0890    Z=             -0.0101  Tot=              0.0920
 Quadrupole moment (field-independent basis, Debye-Ang):
   XX=            -33.3745   YY=            -53.5333   ZZ=            -85.1186
   XY=              0.2760   XZ=              0.4128   YZ=              0.5369

 Normal termination of Gaussian 16 at Wed Jul 27 09:55:16 2022.
