 Gaussian 16, Revision C.01,
 Gaussian 16:  ES64L-G16RevC.01  3-Jul-2019

 ---------------------------------------------------------------
 #n M062X/6-311++G(d,p) TD(NStates=1) EmpiricalDispersion=GD3 SP
 ---------------------------------------------------------------

 -----
 SP_-2
 -----
 Symbolic Z-matrix:
 Charge =  1 Multiplicity = 1

                         Standard orientation:
 ---------------------------------------------------------------------
 Center     Atomic      Atomic             Coordinates (Angstroms)
 Number     Number       Type             X           Y           Z
 ---------------------------------------------------------------------
      1          6           0        2.488137   -1.415571    0.021578
      2          6           0        3.699361   -0.753794   -0.013228
      3          6           0        3.686289    0.662555   -0.018630
      4          6           0        2.468166    1.494180   -0.017406
      5          6           0       -2.458642    1.484307    0.006007
      6          6           0       -3.682244    0.694924    0.049767
      7          6           0       -3.703882   -0.731832   -0.009375
      8          6           0       -2.497169   -1.431778   -0.019654
      9          6           0       -0.004960   -1.485397    0.031542
     10          6           0        0.005048    1.547151   -0.018364
     11          6           0        1.259680   -0.637086    0.055500
     12          6           0        1.240004    0.770488   -0.002176
     13          6           0       -1.263751   -0.643057   -0.053346
     14          6           0       -1.235003    0.766143   -0.014558
     15          1           0        2.480462   -2.442524   -0.000206
     16          1           0        4.633285   -1.277713   -0.043683
     17          1           0        4.612778    1.266120    0.086930
     18          1           0        2.475646    2.556424    0.005191
     19          1           0        0.008236    2.612008    0.004258
     20          1           0       -2.459905    2.498591    0.027425
     21          1           0       -4.605674    1.270945    0.027496
     22          1           0       -4.640528   -1.285634   -0.063853
     23          1           0       -2.495715   -2.482753   -0.041918
     24          1           0       -0.010444   -2.341293    0.865583
     25          1           0       -0.004358   -2.301569   -0.853165
 ---------------------------------------------------------------------

 SCF Done:  E(RM062X) =  -539.697602182     A.U. after   16 cycles

 Excitation energies and oscillator strengths:

 Excited State   1:      Singlet-A      2.4499 eV  506.07 nm  f=0.0279  <S**2>=0.000
      47 -> 48         0.70476
 This state for optimization and/or second-order correction.
 Total Energy, E(TD-HF/TD-DFT) =  -539.607568816
 Copying the excited state density for this state as the 1-particle RhoCI density.

 The electronic state is 1-A.
 Alpha  occ. eigenvalues --  -10.78749 -10.74311 -10.74198 -10.73304 -10.73296
 Alpha  occ. eigenvalues --  -10.73160 -10.72013 -10.71330 -10.71285 -10.70943
 Alpha  occ. eigenvalues --  -10.70678 -10.70544 -10.70495 -10.70079  -1.14917
 Alpha  occ. eigenvalues --   -1.10899  -1.05906  -1.03853  -1.01178  -0.98330
 Alpha  occ. eigenvalues --   -0.95145  -0.89399  -0.86813  -0.84962  -0.84090
 Alpha  occ. eigenvalues --   -0.77614  -0.74529  -0.74402  -0.70505  -0.69822
 Alpha  occ. eigenvalues --   -0.68500  -0.67391  -0.65637  -0.65177  -0.64788
 Alpha  occ. eigenvalues --   -0.61993  -0.60205  -0.58487  -0.58155  -0.57964
 Alpha  occ. eigenvalues --   -0.57631  -0.57060  -0.52666  -0.51610  -0.46361
 Alpha  occ. eigenvalues --   -0.44993  -0.43342
 Alpha virt. eigenvalues --   -0.26460  -0.15896  -0.14252  -0.13546  -0.11240
 Alpha virt. eigenvalues --   -0.10349  -0.09143  -0.08460  -0.07821  -0.07535
 Alpha virt. eigenvalues --   -0.07365  -0.07205  -0.05723  -0.05695  -0.05566

 Mulliken charges:
               1
     1  C   -0.092772
     2  C   -0.339032
     3  C   -0.341444
     4  C   -0.262247
     5  C   -0.235415
     6  C   -0.367703
     7  C   -0.250390
     8  C   -0.284459
     9  C   -0.608536
    10  C   -0.120478
    11  C   -0.343378
    12  C    0.780559
    13  C   -0.076656
    14  C    0.909527
    15  H    0.228565
    16  H    0.256402
    17  H    0.243512
    18  H    0.213007
    19  H    0.220687
    20  H    0.192339
    21  H    0.246549
    22  H    0.263014
    23  H    0.226821
    24  H    0.277205
    25  H    0.264322
 Sum of Mulliken charges =   1.00000

 Dipole moment (field-independent basis, Debye):
    X=             -0.0099    Y=              0.0578    Z=             -0.0069  Tot=              0.0590
 Quadrupole moment (field-independent basis, Debye-Ang):
   XX=            -34.0718   YY=            -52.6451   ZZ=            -85.4571
   XY=              0.1851   XZ=              0.5408   YZ=              0.3569

 Normal termination of Gaussian 16 at Wed Jul 27 10:13:33 2022.
