 Gaussian 16, Revision C.01,
 Gaussian 16:  ES64L-G16RevC.01  3-Jul-2019

 ---------------------------------------------------------------
 #n M062X/6-311++G(d,p) TD(NStates=1) EmpiricalDispersion=GD3 SP
 ---------------------------------------------------------------

 ----
 SP_2
 ----
 Symbolic Z-matrix:
 Charge =  1 Multiplicity = 1

                         Standard orientation:
 ---------------------------------------------------------------------
 Center     Atomic      Atomic             Coordinates (Angstroms)
 Number     Number       Type             X           Y           Z
 ---------------------------------------------------------------------
      1          6           0       -2.496764   -1.385237   -0.004198
      2          6           0       -3.703492   -0.679023   -0.009932
      3          6           0       -3.681862    0.721277    0.025374
      4          6           0       -2.459040    1.423440   -0.003425
      5          6           0        2.467432    1.433385   -0.008976
      6          6           0        3.685924    0.688462    0.007866
      7          6           0        3.699494   -0.700324   -0.011088
      8          6           0        2.488696   -1.367847    0.006555
      9          6           0       -0.004345   -1.462278    0.031151
     10          6           0        0.004313    1.459336   -0.019470
     11          6           0       -1.264048   -0.671958   -0.013707
     12          6           0       -1.235326    0.738079   -0.010164
     13          6           0        1.260136   -0.663877    0.013726
     14          6           0        1.239697    0.742875   -0.006918
     15          1           0       -2.495291   -2.469188   -0.027941
     16          1           0       -4.640328   -1.233088   -0.056044
     17          1           0       -4.605705    1.272098    0.050545
     18          1           0       -2.460318    2.470700    0.019446
     19          1           0        0.007420    2.536175    0.004113
     20          1           0        2.474891    2.528606    0.015053
     21          1           0        4.612915    1.269187    0.065595
     22          1           0        4.633346   -1.223926   -0.050597
     23          1           0        2.481039   -2.427778   -0.016636
     24          1           0       -0.000648   -2.169926   -0.851496
     25          1           0       -0.012213   -2.210727    0.867200
 ---------------------------------------------------------------------

 SCF Done:  E(RM062X) =  -539.751595370     A.U. after   15 cycles

 Excitation energies and oscillator strengths:

 Excited State   1:      Singlet-A      2.7309 eV  454.01 nm  f=0.0286  <S**2>=0.000
      47 -> 48         0.70440
 This state for optimization and/or second-order correction.
 Total Energy, E(TD-HF/TD-DFT) =  -539.651238373
 Copying the excited state density for this state as the 1-particle RhoCI density.

 The electronic state is 1-A.
 Alpha  occ. eigenvalues --  -10.77935 -10.73563 -10.73436 -10.72671 -10.72630
 Alpha  occ. eigenvalues --  -10.71783 -10.71531 -10.71252 -10.71078 -10.70815
 Alpha  occ. eigenvalues --  -10.70293 -10.69938 -10.69814 -10.69786  -1.16036
 Alpha  occ. eigenvalues --   -1.12054  -1.06630  -1.05282  -1.01264  -0.99708
 Alpha  occ. eigenvalues --   -0.95600  -0.90630  -0.86525  -0.85594  -0.83918
 Alpha  occ. eigenvalues --   -0.78162  -0.75629  -0.74456  -0.69592  -0.69342
 Alpha  occ. eigenvalues --   -0.68368  -0.68223  -0.67270  -0.64881  -0.64682
 Alpha  occ. eigenvalues --   -0.62360  -0.61916  -0.59520  -0.59367  -0.58708
 Alpha  occ. eigenvalues --   -0.57227  -0.55787  -0.54274  -0.52205  -0.46470
 Alpha  occ. eigenvalues --   -0.45847  -0.44205
 Alpha virt. eigenvalues --   -0.26170  -0.14989  -0.14079  -0.13014  -0.11186
 Alpha virt. eigenvalues --   -0.10148  -0.09202  -0.08069  -0.07923  -0.07490
 Alpha virt. eigenvalues --   -0.07231  -0.07182  -0.05653  -0.05612  -0.05393

 Mulliken charges:
               1
     1  C    0.080393
     2  C   -0.383181
     3  C   -0.434829
     4  C   -0.044196
     5  C    0.010898
     6  C   -0.444740
     7  C   -0.403214
     8  C    0.072150
     9  C   -0.393033
    10  C    0.094470
    11  C   -0.565894
    12  C    0.730684
    13  C   -0.575122
    14  C    0.631304
    15  H    0.238834
    16  H    0.259055
    17  H    0.250217
    18  H    0.205862
    19  H    0.195055
    20  H    0.227571
    21  H    0.250434
    22  H    0.254232
    23  H    0.230866
    24  H    0.254414
    25  H    0.257769
 Sum of Mulliken charges =   1.00000

 Dipole moment (field-independent basis, Debye):
    X=             -0.0205    Y=              0.1547    Z=             -0.0068  Tot=              0.1562
 Quadrupole moment (field-independent basis, Debye-Ang):
   XX=            -31.8843   YY=            -55.3489   ZZ=            -84.4644
   XY=              0.1812   XZ=              0.1256   YZ=              0.3606

 Normal termination of Gaussian 16 at Wed Jul 27 11:34:48 2022.
