 Gaussian 16, Revision C.01,
 Gaussian 16:  ES64L-G16RevC.01  3-Jul-2019

 ---------------------------------------------------------------
 #n M062X/6-311++G(d,p) TD(NStates=1) EmpiricalDispersion=GD3 SP
 ---------------------------------------------------------------

 ----
 SP_1
 ----
 Symbolic Z-matrix:
 Charge =  1 Multiplicity = 1

                         Standard orientation:
 ---------------------------------------------------------------------
 Center     Atomic      Atomic             Coordinates (Angstroms)
 Number     Number       Type             X           Y           Z
 ---------------------------------------------------------------------
      1          6           0       -2.494784   -1.396199   -0.009725
      2          6           0       -3.702573   -0.702053   -0.004513
      3          6           0       -3.682978    0.704468    0.025117
      4          6           0       -2.461060    1.445804    0.002850
      5          6           0        2.465442    1.450770   -0.008881
      6          6           0        3.685006    0.688140   -0.008850
      7          6           0        3.700489   -0.712811   -0.006268
      8          6           0        2.490592   -1.387698    0.010830
      9          6           0       -0.002274   -1.469132    0.015645
     10          6           0        0.002277    1.487966   -0.009549
     11          6           0       -1.262995   -0.660337   -0.027015
     12          6           0       -1.236356    0.748292   -0.007333
     13          6           0        1.261012   -0.656652    0.027387
     14          6           0        1.238645    0.750616   -0.001151
     15          1           0       -2.491742   -2.463343   -0.021268
     16          1           0       -4.638593   -1.249108   -0.031791
     17          1           0       -4.607488    1.271585    0.013995
     18          1           0       -2.463830    2.494248    0.014174
     19          1           0        0.003843    2.561003    0.002082
     20          1           0        2.471307    2.523200    0.002760
     21          1           0        4.611075    1.269813    0.043796
     22          1           0        4.635060   -1.244728   -0.021693
     23          1           0        2.484452   -2.442829   -0.000610
     24          1           0        0.002152   -2.223333   -0.855878
     25          1           0       -0.008901   -2.243552    0.863173
 ---------------------------------------------------------------------

 SCF Done:  E(RM062X) =  -539.741975953     A.U. after   16 cycles

 Excitation energies and oscillator strengths:

 Excited State   1:      Singlet-A      2.6435 eV  469.02 nm  f=0.0285  <S**2>=0.000
      47 -> 48         0.70456
 This state for optimization and/or second-order correction.
 Total Energy, E(TD-HF/TD-DFT) =  -539.644830720
 Copying the excited state density for this state as the 1-particle RhoCI density.

 The electronic state is 1-A.
 Alpha  occ. eigenvalues --  -10.78208 -10.73766 -10.73705 -10.72859 -10.72844
 Alpha  occ. eigenvalues --  -10.72059 -10.71671 -10.71313 -10.71161 -10.70950
 Alpha  occ. eigenvalues --  -10.70252 -10.70125 -10.70043 -10.70014  -1.15672
 Alpha  occ. eigenvalues --   -1.11667  -1.06365  -1.04818  -1.01247  -0.99249
 Alpha  occ. eigenvalues --   -0.95453  -0.90210  -0.86625  -0.85346  -0.84017
 Alpha  occ. eigenvalues --   -0.77962  -0.75244  -0.74489  -0.69844  -0.69414
 Alpha  occ. eigenvalues --   -0.68331  -0.68060  -0.66523  -0.65116  -0.64913
 Alpha  occ. eigenvalues --   -0.61968  -0.61612  -0.59079  -0.58925  -0.58461
 Alpha  occ. eigenvalues --   -0.57553  -0.56302  -0.53771  -0.52024  -0.46410
 Alpha  occ. eigenvalues --   -0.45602  -0.43931
 Alpha virt. eigenvalues --   -0.26258  -0.15292  -0.14059  -0.13227  -0.11195
 Alpha virt. eigenvalues --   -0.10210  -0.09184  -0.08150  -0.07885  -0.07506
 Alpha virt. eigenvalues --   -0.07258  -0.07211  -0.05665  -0.05638  -0.05446

 Mulliken charges:
               1
     1  C   -0.237178
     2  C   -0.284398
     3  C   -0.409714
     4  C   -0.153948
     5  C   -0.158589
     6  C   -0.398785
     7  C   -0.322710
     8  C   -0.172027
     9  C   -0.503220
    10  C   -0.099703
    11  C   -0.138773
    12  C    0.739109
    13  C   -0.228035
    14  C    0.740354
    15  H    0.230204
    16  H    0.259899
    17  H    0.250224
    18  H    0.207095
    19  H    0.204089
    20  H    0.217664
    21  H    0.249817
    22  H    0.256888
    23  H    0.229283
    24  H    0.259718
    25  H    0.262735
 Sum of Mulliken charges =   1.00000

 Dipole moment (field-independent basis, Debye):
    X=             -0.0088    Y=              0.1234    Z=             -0.0035  Tot=              0.1238
 Quadrupole moment (field-independent basis, Debye-Ang):
   XX=            -32.6149   YY=            -54.4540   ZZ=            -84.7917
   XY=              0.0911   XZ=              0.2605   YZ=              0.1800

 Normal termination of Gaussian 16 at Wed Jul 27 11:11:27 2022.
