 Gaussian 16, Revision C.01,
 Gaussian 16:  ES64L-G16RevC.01  3-Jul-2019

 ---------------------------------------------------------------
 #n M062X/6-311++G(d,p) TD(NStates=1) EmpiricalDispersion=GD3 SP
 ---------------------------------------------------------------

 ----
 SP_2
 ----
 Symbolic Z-matrix:
 Charge =  1 Multiplicity = 1

                         Standard orientation:
 ---------------------------------------------------------------------
 Center     Atomic      Atomic             Coordinates (Angstroms)
 Number     Number       Type             X           Y           Z
 ---------------------------------------------------------------------
      1          6           0       -2.496613   -1.369724    0.000982
      2          6           0       -3.703400   -0.661413   -0.010078
      3          6           0       -3.681834    0.730075    0.017278
      4          6           0       -2.459212    1.403158   -0.006566
      5          6           0        2.467236    1.413113   -0.006197
      6          6           0        3.685902    0.697084    0.016681
      7          6           0        3.699570   -0.682508   -0.010388
      8          6           0        2.488858   -1.351939    0.001540
      9          6           0       -0.004144   -1.454571    0.031023
     10          6           0        0.004074    1.430065   -0.019860
     11          6           0       -1.264047   -0.681600   -0.000494
     12          6           0       -1.235429    0.728725   -0.008697
     13          6           0        1.260188   -0.672798   -0.000217
     14          6           0        1.239595    0.733669   -0.008514
     15          1           0       -2.495134   -2.464666   -0.023265
     16          1           0       -4.640285   -1.215567   -0.053395
     17          1           0       -4.605690    1.272483    0.058264
     18          1           0       -2.460495    2.461410    0.016802
     19          1           0        0.007155    2.510898    0.004049
     20          1           0        2.474690    2.519327    0.018320
     21          1           0        4.612941    1.270208    0.058453
     22          1           0        4.633380   -1.206003   -0.052921
     23          1           0        2.481205   -2.422862   -0.022132
     24          1           0       -0.002094   -2.126037   -0.850922
     25          1           0       -0.010139   -2.167215    0.867785
 ---------------------------------------------------------------------

 SCF Done:  E(RM062X) =  -539.757337798     A.U. after   15 cycles

 Excitation energies and oscillator strengths:

 Excited State   1:      Singlet-A      2.8179 eV  439.99 nm  f=0.0287  <S**2>=0.000
      47 -> 48         0.70425
 This state for optimization and/or second-order correction.
 Total Energy, E(TD-HF/TD-DFT) =  -539.653781294
 Copying the excited state density for this state as the 1-particle RhoCI density.

 The electronic state is 1-A.
 Alpha  occ. eigenvalues --  -10.77664 -10.73322 -10.73191 -10.72472 -10.72422
 Alpha  occ. eigenvalues --  -10.71720 -10.71237 -10.71026 -10.70997 -10.70785
 Alpha  occ. eigenvalues --  -10.70216 -10.69735 -10.69712 -10.69572  -1.16421
 Alpha  occ. eigenvalues --   -1.12456  -1.06941  -1.05722  -1.01300  -1.00173
 Alpha  occ. eigenvalues --   -0.95766  -0.91054  -0.86419  -0.85871  -0.83821
 Alpha  occ. eigenvalues --   -0.78387  -0.76011  -0.74415  -0.69603  -0.69264
 Alpha  occ. eigenvalues --   -0.68464  -0.68172  -0.68081  -0.64734  -0.64270
 Alpha  occ. eigenvalues --   -0.63065  -0.61867  -0.60028  -0.59679  -0.59012
 Alpha  occ. eigenvalues --   -0.56889  -0.55230  -0.54788  -0.52410  -0.46618
 Alpha  occ. eigenvalues --   -0.46032  -0.44484
 Alpha virt. eigenvalues --   -0.26089  -0.14676  -0.14114  -0.12785  -0.11181
 Alpha virt. eigenvalues --   -0.10089  -0.09229  -0.08033  -0.07942  -0.07477
 Alpha virt. eigenvalues --   -0.07204  -0.07150  -0.05645  -0.05587  -0.05338

 Mulliken charges:
               1
     1  C    0.087636
     2  C   -0.395730
     3  C   -0.434955
     4  C   -0.006827
     5  C    0.041122
     6  C   -0.446289
     7  C   -0.400810
     8  C    0.092041
     9  C   -0.356159
    10  C    0.092930
    11  C   -0.635151
    12  C    0.711879
    13  C   -0.645102
    14  C    0.680377
    15  H    0.240731
    16  H    0.258531
    17  H    0.248298
    18  H    0.210602
    19  H    0.188549
    20  H    0.231448
    21  H    0.249585
    22  H    0.254012
    23  H    0.231948
    24  H    0.249418
    25  H    0.251917
 Sum of Mulliken charges =   1.00000

 Dipole moment (field-independent basis, Debye):
    X=             -0.0228    Y=              0.1870    Z=             -0.0068  Tot=              0.1885
 Quadrupole moment (field-independent basis, Debye-Ang):
   XX=            -31.1300   YY=            -56.2515   ZZ=            -84.1400
   XY=              0.1792   XZ=             -0.0026   YZ=              0.3615

 Normal termination of Gaussian 16 at Wed Jul 27 11:37:11 2022.
