 Gaussian 16, Revision C.01,
 Gaussian 16:  ES64L-G16RevC.01  3-Jul-2019

 ---------------------------------------------------------------
 #n M062X/6-311++G(d,p) TD(NStates=1) EmpiricalDispersion=GD3 SP
 ---------------------------------------------------------------

 -----
 SP_-4
 -----
 Symbolic Z-matrix:
 Charge =  1 Multiplicity = 1

                         Standard orientation:
 ---------------------------------------------------------------------
 Center     Atomic      Atomic             Coordinates (Angstroms)
 Number     Number       Type             X           Y           Z
 ---------------------------------------------------------------------
      1          6           0        2.485085   -1.344311    0.003442
      2          6           0        3.697609   -0.692876   -0.021329
      3          6           0        3.687840    0.679999    0.032507
      4          6           0        2.471323    1.419734   -0.012151
      5          6           0       -2.455271    1.399846   -0.013297
      6          6           0       -3.679703    0.745931    0.035382
      7          6           0       -3.705271   -0.650716   -0.019596
      8          6           0       -2.500599   -1.379844    0.001543
      9          6           0       -0.008289   -1.458035    0.061964
     10          6           0        0.008150    1.432706   -0.039657
     11          6           0        1.258311   -0.668955   -0.000254
     12          6           0        1.241716    0.737375   -0.016896
     13          6           0       -1.266031   -0.686542   -0.001196
     14          6           0       -1.233381    0.727498   -0.017466
     15          1           0        2.474448   -2.402443   -0.043307
     16          1           0        4.630025   -1.198442   -0.105611
     17          1           0        4.616612    1.265953    0.116713
     18          1           0        2.482066    2.549084    0.038015
     19          1           0        0.014312    2.512739    0.008143
     20          1           0       -2.453674    2.433357    0.032271
     21          1           0       -4.602112    1.270510    0.116572
     22          1           0       -4.643834   -1.217544   -0.106889
     23          1           0       -2.502310   -2.485972   -0.047508
     24          1           0       -0.004269   -2.190283    0.875416
     25          1           0       -0.020202   -2.107825   -0.841806
 ---------------------------------------------------------------------

 SCF Done:  E(RM062X) =  -539.748630800     A.U. after   15 cycles

 Excitation energies and oscillator strengths:

 Excited State   1:      Singlet-A      2.8038 eV  442.20 nm  f=0.0285  <S**2>=0.000
      47 -> 48         0.70419
 This state for optimization and/or second-order correction.
 Total Energy, E(TD-HF/TD-DFT) =  -539.645592922
 Copying the excited state density for this state as the 1-particle RhoCI density.

 The electronic state is 1-A.
 Alpha  occ. eigenvalues --  -10.77656 -10.73443 -10.73168 -10.72533 -10.72430
 Alpha  occ. eigenvalues --  -10.72076 -10.71484 -10.71048 -10.70695 -10.70579
 Alpha  occ. eigenvalues --  -10.70466 -10.69817 -10.69539 -10.69505  -1.16359
 Alpha  occ. eigenvalues --   -1.12428  -1.06930  -1.05705  -1.01259  -1.00138
 Alpha  occ. eigenvalues --   -0.95721  -0.91048  -0.86419  -0.85786  -0.83830
 Alpha  occ. eigenvalues --   -0.78352  -0.75966  -0.74404  -0.69707  -0.69329
 Alpha  occ. eigenvalues --   -0.68356  -0.68128  -0.68009  -0.64721  -0.64226
 Alpha  occ. eigenvalues --   -0.63064  -0.61868  -0.60074  -0.59679  -0.58804
 Alpha  occ. eigenvalues --   -0.56863  -0.55262  -0.54654  -0.52326  -0.46598
 Alpha  occ. eigenvalues --   -0.45956  -0.44433
 Alpha virt. eigenvalues --   -0.26090  -0.14698  -0.14167  -0.12819  -0.11188
 Alpha virt. eigenvalues --   -0.10099  -0.09227  -0.08113  -0.07926  -0.07482
 Alpha virt. eigenvalues --   -0.07219  -0.07153  -0.05653  -0.05606  -0.05355

 Mulliken charges:
               1
     1  C    0.084163
     2  C   -0.384332
     3  C   -0.448156
     4  C    0.063204
     5  C   -0.016207
     6  C   -0.437710
     7  C   -0.373794
     8  C    0.075384
     9  C   -0.406713
    10  C    0.090062
    11  C   -0.631705
    12  C    0.693692
    13  C   -0.644450
    14  C    0.733012
    15  H    0.225344
    16  H    0.252045
    17  H    0.250255
    18  H    0.238441
    19  H    0.183661
    20  H    0.197857
    21  H    0.248023
    22  H    0.260309
    23  H    0.242399
    24  H    0.256173
    25  H    0.249044
 Sum of Mulliken charges =   1.00000

 Dipole moment (field-independent basis, Debye):
    X=             -0.0467    Y=              0.1832    Z=             -0.0124  Tot=              0.1894
 Quadrupole moment (field-independent basis, Debye-Ang):
   XX=            -31.1728   YY=            -56.2196   ZZ=            -84.1331
   XY=              0.3578   XZ=              0.0295   YZ=              0.7204

 Normal termination of Gaussian 16 at Wed Jul 27 09:41:03 2022.
