 Gaussian 16, Revision C.01,
 Gaussian 16:  ES64L-G16RevC.01  3-Jul-2019

 ---------------------------------------------------------------
 #n M062X/6-311++G(d,p) TD(NStates=1) EmpiricalDispersion=GD3 SP
 ---------------------------------------------------------------

 -----
 SP_-2
 -----
 Symbolic Z-matrix:
 Charge =  1 Multiplicity = 1

                         Standard orientation:
 ---------------------------------------------------------------------
 Center     Atomic      Atomic             Coordinates (Angstroms)
 Number     Number       Type             X           Y           Z
 ---------------------------------------------------------------------
      1          6           0        2.488859   -1.351937    0.001485
      2          6           0        3.699570   -0.682506   -0.010470
      3          6           0        3.685902    0.697086    0.016600
      4          6           0        2.467235    1.413115   -0.006252
      5          6           0       -2.459213    1.403157   -0.006511
      6          6           0       -3.681834    0.730072    0.017360
      7          6           0       -3.703400   -0.661416   -0.009996
      8          6           0       -2.496612   -1.369725    0.001037
      9          6           0       -0.004142   -1.454571    0.031023
     10          6           0        0.004073    1.430065   -0.019860
     11          6           0        1.260188   -0.672797   -0.000245
     12          6           0        1.239595    0.733670   -0.008541
     13          6           0       -1.264047   -0.681601   -0.000467
     14          6           0       -1.235430    0.728725   -0.008670
     15          1           0        2.481206   -2.422860   -0.022187
     16          1           0        4.633380   -1.205999   -0.053024
     17          1           0        4.612941    1.270211    0.058351
     18          1           0        2.474688    2.519329    0.018266
     19          1           0        0.007153    2.510898    0.004050
     20          1           0       -2.460497    2.461408    0.016857
     21          1           0       -4.605690    1.272480    0.058367
     22          1           0       -4.640285   -1.215570   -0.053293
     23          1           0       -2.495133   -2.464667   -0.023210
     24          1           0       -0.002118   -2.167238    0.867784
     25          1           0       -0.010111   -2.126014   -0.850922
 ---------------------------------------------------------------------

 SCF Done:  E(RM062X) =  -539.757337422     A.U. after   15 cycles

 Excitation energies and oscillator strengths:

 Excited State   1:      Singlet-A      2.8179 eV  439.98 nm  f=0.0287  <S**2>=0.000
      47 -> 48         0.70424
 This state for optimization and/or second-order correction.
 Total Energy, E(TD-HF/TD-DFT) =  -539.653780763
 Copying the excited state density for this state as the 1-particle RhoCI density.

 The electronic state is 1-A.
 Alpha  occ. eigenvalues --  -10.77664 -10.73324 -10.73189 -10.72473 -10.72421
 Alpha  occ. eigenvalues --  -10.71720 -10.71237 -10.71026 -10.70997 -10.70785
 Alpha  occ. eigenvalues --  -10.70216 -10.69735 -10.69712 -10.69572  -1.16421
 Alpha  occ. eigenvalues --   -1.12456  -1.06941  -1.05722  -1.01300  -1.00173
 Alpha  occ. eigenvalues --   -0.95766  -0.91054  -0.86419  -0.85871  -0.83821
 Alpha  occ. eigenvalues --   -0.78387  -0.76011  -0.74415  -0.69602  -0.69265
 Alpha  occ. eigenvalues --   -0.68463  -0.68175  -0.68079  -0.64734  -0.64270
 Alpha  occ. eigenvalues --   -0.63065  -0.61867  -0.60029  -0.59679  -0.59011
 Alpha  occ. eigenvalues --   -0.56889  -0.55230  -0.54788  -0.52410  -0.46618
 Alpha  occ. eigenvalues --   -0.46032  -0.44484
 Alpha virt. eigenvalues --   -0.26089  -0.14676  -0.14114  -0.12785  -0.11181
 Alpha virt. eigenvalues --   -0.10089  -0.09229  -0.08033  -0.07942  -0.07477
 Alpha virt. eigenvalues --   -0.07205  -0.07150  -0.05645  -0.05587  -0.05338

 Mulliken charges:
               1
     1  C    0.092579
     2  C   -0.399950
     3  C   -0.445883
     4  C    0.040931
     5  C   -0.006707
     6  C   -0.435251
     7  C   -0.396537
     8  C    0.087008
     9  C   -0.356421
    10  C    0.092796
    11  C   -0.636543
    12  C    0.683728
    13  C   -0.643670
    14  C    0.708873
    15  H    0.232161
    16  H    0.254019
    17  H    0.249579
    18  H    0.231451
    19  H    0.188547
    20  H    0.210599
    21  H    0.248304
    22  H    0.258524
    23  H    0.240540
    24  H    0.251943
    25  H    0.249381
 Sum of Mulliken charges =   1.00000

 Dipole moment (field-independent basis, Debye):
    X=             -0.0229    Y=              0.1870    Z=             -0.0067  Tot=              0.1885
 Quadrupole moment (field-independent basis, Debye-Ang):
   XX=            -31.1301   YY=            -56.2514   ZZ=            -84.1400
   XY=              0.1787   XZ=              0.0108   YZ=              0.3614

 Normal termination of Gaussian 16 at Wed Jul 27 10:22:44 2022.
