 Gaussian 16, Revision C.01,
 Gaussian 16:  ES64L-G16RevC.01  3-Jul-2019

 ---------------------------------------------------------------
 #n M062X/6-311++G(d,p) TD(NStates=1) EmpiricalDispersion=GD3 SP
 ---------------------------------------------------------------

 -----
 SP_-2
 -----
 Symbolic Z-matrix:
 Charge =  1 Multiplicity = 1

                         Standard orientation:
 ---------------------------------------------------------------------
 Center     Atomic      Atomic             Coordinates (Angstroms)
 Number     Number       Type             X           Y           Z
 ---------------------------------------------------------------------
      1          6           0        2.489143   -1.320121   -0.008528
      2          6           0        3.699767   -0.646885   -0.009049
      3          6           0        3.686009    0.714308    0.034242
      4          6           0        2.466920    1.372562   -0.000717
      5          6           0       -2.459617    1.362604   -0.012815
      6          6           0       -3.681929    0.747689    0.001181
      7          6           0       -3.703273   -0.626187   -0.010266
      8          6           0       -2.496285   -1.338699    0.011415
      9          6           0       -0.003744   -1.439158    0.030774
     10          6           0        0.003604    1.371524   -0.020674
     11          6           0        1.260140   -0.690623   -0.028144
     12          6           0        1.239391    0.715259   -0.011742
     13          6           0       -1.263893   -0.700901    0.025945
     14          6           0       -1.235629    0.710019   -0.005746
     15          1           0        2.481500   -2.413028   -0.033178
     16          1           0        4.633469   -1.170163   -0.057654
     17          1           0        4.612963    1.272249    0.044071
     18          1           0        2.474361    2.500759    0.024795
     19          1           0        0.006636    2.460344    0.003895
     20          1           0       -2.460910    2.442839    0.011562
     21          1           0       -4.605624    1.273254    0.073808
     22          1           0       -4.640232   -1.180519   -0.047974
     23          1           0       -2.494795   -2.455623   -0.013859
     24          1           0        0.002016   -2.080215    0.868962
     25          1           0       -0.013016   -2.038235   -0.849678
 ---------------------------------------------------------------------

 SCF Done:  E(RM062X) =  -539.749427843     A.U. after   15 cycles

 Excitation energies and oscillator strengths:

 Excited State   1:      Singlet-A      2.9799 eV  416.07 nm  f=0.0283  <S**2>=0.000
      47 -> 48         0.70391
 This state for optimization and/or second-order correction.
 Total Energy, E(TD-HF/TD-DFT) =  -539.639920145
 Copying the excited state density for this state as the 1-particle RhoCI density.

 The electronic state is 1-A.
 Alpha  occ. eigenvalues --  -10.77131 -10.72859 -10.72721 -10.72099 -10.72031
 Alpha  occ. eigenvalues --  -10.71625 -10.71228 -10.70953 -10.70746 -10.70077
 Alpha  occ. eigenvalues --  -10.69962 -10.69595 -10.69300 -10.69183  -1.17214
 Alpha  occ. eigenvalues --   -1.13289  -1.07757  -1.06457  -1.01517  -1.00974
 Alpha  occ. eigenvalues --   -0.96125  -0.91903  -0.86444  -0.86173  -0.83688
 Alpha  occ. eigenvalues --   -0.78880  -0.76724  -0.74320  -0.70410  -0.69913
 Alpha  occ. eigenvalues --   -0.69219  -0.68244  -0.67806  -0.64929  -0.63807
 Alpha  occ. eigenvalues --   -0.63274  -0.61733  -0.60975  -0.60286  -0.59538
 Alpha  occ. eigenvalues --   -0.56266  -0.55712  -0.53983  -0.52828  -0.47167
 Alpha  occ. eigenvalues --   -0.46160  -0.45024
 Alpha virt. eigenvalues --   -0.25951  -0.14232  -0.14042  -0.12358  -0.11180
 Alpha virt. eigenvalues --   -0.09982  -0.09292  -0.08121  -0.07934  -0.07455
 Alpha virt. eigenvalues --   -0.07185  -0.07021  -0.05638  -0.05544  -0.05242

 Mulliken charges:
               1
     1  C    0.070950
     2  C   -0.393607
     3  C   -0.448581
     4  C    0.128122
     5  C    0.080091
     6  C   -0.432027
     7  C   -0.432011
     8  C    0.062948
     9  C   -0.292383
    10  C    0.098303
    11  C   -0.690651
    12  C    0.772434
    13  C   -0.734135
    14  C    0.620847
    15  H    0.235576
    16  H    0.254242
    17  H    0.241772
    18  H    0.239977
    19  H    0.179524
    20  H    0.220018
    21  H    0.239604
    22  H    0.258282
    23  H    0.244512
    24  H    0.238152
    25  H    0.238042
 Sum of Mulliken charges =   1.00000

 Dipole moment (field-independent basis, Debye):
    X=             -0.0264    Y=              0.2531    Z=             -0.0061  Tot=              0.2546
 Quadrupole moment (field-independent basis, Debye-Ang):
   XX=            -29.5912   YY=            -58.0674   ZZ=            -83.5057
   XY=              0.1722   XZ=             -0.2337   YZ=              0.3627

 Normal termination of Gaussian 16 at Wed Jul 27 10:27:24 2022.
