 Gaussian 16, Revision C.01,
 Gaussian 16:  ES64L-G16RevC.01  3-Jul-2019

 ---------------------------------------------------------------
 #n M062X/6-311++G(d,p) TD(NStates=1) EmpiricalDispersion=GD3 SP
 ---------------------------------------------------------------

 ----
 SP_4
 ----
 Symbolic Z-matrix:
 Charge =  1 Multiplicity = 1

                         Standard orientation:
 ---------------------------------------------------------------------
 Center     Atomic      Atomic             Coordinates (Angstroms)
 Number     Number       Type             X           Y           Z
 ---------------------------------------------------------------------
      1          6           0       -2.501213   -1.410438   -0.009059
      2          6           0       -3.705642   -0.685692   -0.020021
      3          6           0       -3.679812    0.728222    0.050667
      4          6           0       -2.454573    1.440389   -0.006779
      5          6           0        2.472114    1.460207   -0.017257
      6          6           0        3.687926    0.662941    0.014365
      7          6           0        3.697302   -0.728717   -0.023091
      8          6           0        2.484432   -1.376498    0.013411
      9          6           0       -0.009107   -1.473392    0.062481
     10          6           0        0.009119    1.491171   -0.038123
     11          6           0       -1.266037   -0.666556   -0.026927
     12          6           0       -1.232963    0.746331   -0.020329
     13          6           0        1.258101   -0.651844    0.028382
     14          6           0        1.242130    0.755604   -0.013535
     15          1           0       -2.502951   -2.494634   -0.056112
     16          1           0       -4.644012   -1.252202   -0.112693
     17          1           0       -4.602168    1.270465    0.100368
     18          1           0       -2.452958    2.451964    0.036854
     19          1           0        0.015386    2.563252    0.008378
     20          1           0        2.482888    2.567623    0.030927
     21          1           0        4.616508    1.263337    0.130616
     22          1           0        4.629886   -1.234748   -0.101079
     23          1           0        2.473774   -2.412692   -0.031419
     24          1           0       -0.001915   -2.195986   -0.844086
     25          1           0       -0.025103   -2.276749    0.873134
 ---------------------------------------------------------------------

 SCF Done:  E(RM062X) =  -539.730290609     A.U. after   16 cycles

 Excitation energies and oscillator strengths:

 Excited State   1:      Singlet-A      2.6274 eV  471.89 nm  f=0.0283  <S**2>=0.000
      47 -> 48         0.70449
 This state for optimization and/or second-order correction.
 Total Energy, E(TD-HF/TD-DFT) =  -539.633736214
 Copying the excited state density for this state as the 1-particle RhoCI density.

 The electronic state is 1-A.
 Alpha  occ. eigenvalues --  -10.78200 -10.73917 -10.73674 -10.72925 -10.72865
 Alpha  occ. eigenvalues --  -10.72219 -10.72119 -10.71505 -10.70798 -10.70663
 Alpha  occ. eigenvalues --  -10.70622 -10.70287 -10.69965 -10.69672  -1.15598
 Alpha  occ. eigenvalues --   -1.11636  -1.06355  -1.04796  -1.01186  -0.99215
 Alpha  occ. eigenvalues --   -0.95393  -0.90208  -0.86623  -0.85250  -0.84029
 Alpha  occ. eigenvalues --   -0.77922  -0.75196  -0.74469  -0.69932  -0.69466
 Alpha  occ. eigenvalues --   -0.68268  -0.67970  -0.66475  -0.65143  -0.64758
 Alpha  occ. eigenvalues --   -0.62000  -0.61620  -0.59146  -0.58986  -0.58145
 Alpha  occ. eigenvalues --   -0.57517  -0.56310  -0.53632  -0.51923  -0.46374
 Alpha  occ. eigenvalues --   -0.45520  -0.43875
 Alpha virt. eigenvalues --   -0.26262  -0.15316  -0.14126  -0.13266  -0.11206
 Alpha virt. eigenvalues --   -0.10221  -0.09182  -0.08230  -0.07893  -0.07512
 Alpha virt. eigenvalues --   -0.07317  -0.07168  -0.05680  -0.05656  -0.05467

 Mulliken charges:
               1
     1  C   -0.360006
     2  C   -0.209150
     3  C   -0.437663
     4  C   -0.116480
     5  C   -0.166141
     6  C   -0.380138
     7  C   -0.355860
     8  C   -0.098096
     9  C   -0.543433
    10  C   -0.100149
    11  C   -0.032122
    12  C    0.728291
    13  C   -0.342720
    14  C    0.800975
    15  H    0.228586
    16  H    0.263863
    17  H    0.250425
    18  H    0.189356
    19  H    0.197753
    20  H    0.230339
    21  H    0.248735
    22  H    0.252874
    23  H    0.223531
    24  H    0.256337
    25  H    0.270892
 Sum of Mulliken charges =   1.00000

 Dipole moment (field-independent basis, Debye):
    X=             -0.0355    Y=              0.1194    Z=             -0.0128  Tot=              0.1252
 Quadrupole moment (field-independent basis, Debye-Ang):
   XX=            -32.6709   YY=            -54.4161   ZZ=            -84.7817
   XY=              0.3681   XZ=              0.2617   YZ=              0.7178

 Normal termination of Gaussian 16 at Wed Jul 27 12:13:34 2022.
