 Gaussian 16, Revision C.01,
 Gaussian 16:  ES64L-G16RevC.01  3-Jul-2019

 ---------------------------------------------------------------
 #n M062X/6-311++G(d,p) TD(NStates=1) EmpiricalDispersion=GD3 SP
 ---------------------------------------------------------------

 ----
 SP_1
 ----
 Symbolic Z-matrix:
 Charge =  1 Multiplicity = 1

                         Standard orientation:
 ---------------------------------------------------------------------
 Center     Atomic      Atomic             Coordinates (Angstroms)
 Number     Number       Type             X           Y           Z
 ---------------------------------------------------------------------
      1          6           0       -2.494838   -1.411815   -0.014861
      2          6           0       -3.702659   -0.719713   -0.004221
      3          6           0       -3.683104    0.695717    0.033400
      4          6           0       -2.461022    1.466092    0.005892
      5          6           0        2.465592    1.471046   -0.011757
      6          6           0        3.685130    0.679463   -0.017484
      7          6           0        3.700488   -0.730582   -0.006824
      8          6           0        2.490486   -1.403512    0.015894
      9          6           0       -0.002376   -1.476845    0.015710
     10          6           0        0.002400    1.517247   -0.009365
     11          6           0       -1.262882   -0.650878   -0.040419
     12          6           0       -1.236301    0.757612   -0.008836
     13          6           0        1.260873   -0.647544    0.041146
     14          6           0        1.238695    0.759861    0.000411
     15          1           0       -2.491799   -2.467960   -0.026154
     16          1           0       -4.638638   -1.266721   -0.034355
     17          1           0       -4.607469    1.271033    0.006419
     18          1           0       -2.463789    2.503539    0.016968
     19          1           0        0.003980    2.586285    0.002106
     20          1           0        2.471461    2.532478   -0.000348
     21          1           0        4.611038    1.268941    0.051086
     22          1           0        4.635062   -1.262549   -0.019278
     23          1           0        2.484342   -2.447644    0.004685
     24          1           0        0.003750   -2.267139   -0.856139
     25          1           0       -0.010822   -2.287171    0.862887
 ---------------------------------------------------------------------

 SCF Done:  E(RM062X) =  -539.724000797     A.U. after   16 cycles

 Excitation energies and oscillator strengths:

 Excited State   1:      Singlet-A      2.5497 eV  486.27 nm  f=0.0283  <S**2>=0.000
      47 -> 48         0.70468
 This state for optimization and/or second-order correction.
 Total Energy, E(TD-HF/TD-DFT) =  -539.630301952
 Copying the excited state density for this state as the 1-particle RhoCI density.

 The electronic state is 1-A.
 Alpha  occ. eigenvalues --  -10.78480 -10.74017 -10.73959 -10.73073 -10.73063
 Alpha  occ. eigenvalues --  -10.72602 -10.71746 -10.71385 -10.71191 -10.70989
 Alpha  occ. eigenvalues --  -10.70370 -10.70337 -10.70283 -10.70101  -1.15299
 Alpha  occ. eigenvalues --   -1.11282  -1.06127  -1.04338  -1.01220  -0.98788
 Alpha  occ. eigenvalues --   -0.95302  -0.89799  -0.86720  -0.85114  -0.84095
 Alpha  occ. eigenvalues --   -0.77778  -0.74841  -0.74507  -0.70165  -0.69586
 Alpha  occ. eigenvalues --   -0.68429  -0.67691  -0.65827  -0.65430  -0.64900
 Alpha  occ. eigenvalues --   -0.61989  -0.60891  -0.58780  -0.58370  -0.58133
 Alpha  occ. eigenvalues --   -0.57845  -0.56760  -0.53233  -0.51826  -0.46382
 Alpha  occ. eigenvalues --   -0.45308  -0.43643
 Alpha virt. eigenvalues --   -0.26355  -0.15595  -0.14107  -0.13415  -0.11212
 Alpha virt. eigenvalues --   -0.10276  -0.09162  -0.08285  -0.07846  -0.07519
 Alpha virt. eigenvalues --   -0.07305  -0.07217  -0.05682  -0.05667  -0.05506

 Mulliken charges:
               1
     1  C   -0.241505
     2  C   -0.277793
     3  C   -0.384905
     4  C   -0.209584
     5  C   -0.217920
     6  C   -0.373253
     7  C   -0.321784
     8  C   -0.155252
     9  C   -0.548876
    10  C   -0.113296
    11  C   -0.139003
    12  C    0.826343
    13  C   -0.265017
    14  C    0.789038
    15  H    0.229522
    16  H    0.260579
    17  H    0.248513
    18  H    0.202337
    19  H    0.212888
    20  H    0.212755
    21  H    0.247575
    22  H    0.257337
    23  H    0.229804
    24  H    0.263431
    25  H    0.268067
 Sum of Mulliken charges =   1.00000

 Dipole moment (field-independent basis, Debye):
    X=             -0.0070    Y=              0.0912    Z=             -0.0035  Tot=              0.0916
 Quadrupole moment (field-independent basis, Debye-Ang):
   XX=            -33.3438   YY=            -53.5528   ZZ=            -85.1242
   XY=              0.0919   XZ=              0.3947   YZ=              0.1794

 Normal termination of Gaussian 16 at Wed Jul 27 11:08:53 2022.
