 Gaussian 16, Revision C.01,
 Gaussian 16:  ES64L-G16RevC.01  3-Jul-2019

 ---------------------------------------------------------------
 #n M062X/6-311++G(d,p) TD(NStates=1) EmpiricalDispersion=GD3 SP
 ---------------------------------------------------------------

 ----
 SP_1
 ----
 Symbolic Z-matrix:
 Charge =  1 Multiplicity = 1

                         Standard orientation:
 ---------------------------------------------------------------------
 Center     Atomic      Atomic             Coordinates (Angstroms)
 Number     Number       Type             X           Y           Z
 ---------------------------------------------------------------------
      1          6           0       -2.494372   -1.318120    0.015998
      2          6           0       -3.702411   -0.613727   -0.005924
      3          6           0       -3.683096    0.748278   -0.016271
      4          6           0       -2.461569    1.344388   -0.012418
      5          6           0        2.465044    1.349362    0.005442
      6          6           0        3.685139    0.731474    0.034356
      7          6           0        3.700737   -0.623987   -0.003435
      8          6           0        2.490951   -1.308632   -0.014451
      9          6           0       -0.001774   -1.430564    0.015332
     10          6           0        0.001687    1.341562   -0.010554
     11          6           0       -1.262803   -0.707670    0.039968
     12          6           0       -1.236607    0.701692    0.000159
     13          6           0        1.260953   -0.702154   -0.041444
     14          6           0        1.238389    0.704385   -0.008982
     15          1           0       -2.491317   -2.440253    0.003160
     16          1           0       -4.638524   -1.161016   -0.018926
     17          1           0       -4.607408    1.274356    0.051881
     18          1           0       -2.464351    2.447822    0.000189
     19          1           0        0.003191    2.434590    0.001898
     20          1           0        2.470896    2.476783    0.018291
     21          1           0        4.611100    1.274168    0.007360
     22          1           0        4.635175   -1.155646   -0.033714
     23          1           0        2.484824   -2.418754   -0.027085
     24          1           0       -0.005870   -2.004300   -0.854390
     25          1           0        0.000670   -2.025466    0.864672
 ---------------------------------------------------------------------

 SCF Done:  E(RM062X) =  -539.737274788     A.U. after   14 cycles

 Excitation energies and oscillator strengths:

 Excited State   1:      Singlet-A      3.0580 eV  405.45 nm  f=0.0279  <S**2>=0.000
      47 -> 48         0.70377
 This state for optimization and/or second-order correction.
 Total Energy, E(TD-HF/TD-DFT) =  -539.624896634
 Copying the excited state density for this state as the 1-particle RhoCI density.

 The electronic state is 1-A.
 Alpha  occ. eigenvalues --  -10.76873 -10.72591 -10.72524 -10.71897 -10.71860
 Alpha  occ. eigenvalues --  -10.71426 -10.71105 -10.71096 -10.70857 -10.69895
 Alpha  occ. eigenvalues --  -10.69654 -10.69454 -10.69080 -10.69027  -1.17641
 Alpha  occ. eigenvalues --   -1.13731  -1.08270  -1.06752  -1.01884  -1.01144
 Alpha  occ. eigenvalues --   -0.96330  -0.92324  -0.86731  -0.86056  -0.83672
 Alpha  occ. eigenvalues --   -0.79150  -0.77060  -0.74277  -0.70942  -0.70885
 Alpha  occ. eigenvalues --   -0.69281  -0.68340  -0.67337  -0.65600  -0.63477
 Alpha  occ. eigenvalues --   -0.62776  -0.61669  -0.61405  -0.60561  -0.59791
 Alpha  occ. eigenvalues --   -0.56490  -0.55639  -0.53311  -0.53058  -0.47510
 Alpha  occ. eigenvalues --   -0.46185  -0.45298
 Alpha virt. eigenvalues --   -0.25897  -0.14296  -0.13719  -0.12164  -0.11179
 Alpha virt. eigenvalues --   -0.09931  -0.09329  -0.08168  -0.07962  -0.07445
 Alpha virt. eigenvalues --   -0.07180  -0.06932  -0.05636  -0.05521  -0.05198

 Mulliken charges:
               1
     1  C    0.042013
     2  C   -0.447465
     3  C   -0.433236
     4  C    0.108870
     5  C    0.140705
     6  C   -0.441067
     7  C   -0.413354
     8  C    0.037094
     9  C   -0.268765
    10  C    0.102643
    11  C   -0.735144
    12  C    0.623383
    13  C   -0.680219
    14  C    0.786065
    15  H    0.244845
    16  H    0.257737
    17  H    0.233489
    18  H    0.229884
    19  H    0.179043
    20  H    0.240312
    21  H    0.234381
    22  H    0.255396
    23  H    0.241134
    24  H    0.231626
    25  H    0.230630
 Sum of Mulliken charges =   1.00000

 Dipole moment (field-independent basis, Debye):
    X=             -0.0136    Y=              0.2890    Z=             -0.0029  Tot=              0.2893
 Quadrupole moment (field-independent basis, Debye-Ang):
   XX=            -28.7993   YY=            -58.9926   ZZ=            -83.1982
   XY=              0.0839   XZ=             -0.3629   YZ=              0.1820

 Normal termination of Gaussian 16 at Wed Jul 27 11:23:13 2022.
