 Gaussian 16, Revision C.01,
 Gaussian 16:  ES64L-G16RevC.01  3-Jul-2019

 ---------------------------------------------------------------
 #n M062X/6-311++G(d,p) TD(NStates=1) EmpiricalDispersion=GD3 SP
 ---------------------------------------------------------------

 ----
 SP_3
 ----
 Symbolic Z-matrix:
 Charge =  1 Multiplicity = 1

                         Standard orientation:
 ---------------------------------------------------------------------
 Center     Atomic      Atomic             Coordinates (Angstroms)
 Number     Number       Type             X           Y           Z
 ---------------------------------------------------------------------
      1          6           0       -2.497607   -1.313050    0.022231
      2          6           0       -3.704002   -0.585807   -0.014875
      3          6           0       -3.681160    0.773501   -0.005402
      4          6           0       -2.458478    1.320321   -0.022992
      5          6           0        2.468386    1.335198    0.001470
      6          6           0        3.687302    0.722757    0.060769
      7          6           0        3.699211   -0.616311   -0.012279
      8          6           0        2.487783   -1.284021   -0.017302
      9          6           0       -0.005035   -1.425236    0.045776
     10          6           0        0.004724    1.314152   -0.032282
     11          6           0       -1.264476   -0.723376    0.051187
     12          6           0       -1.234990    0.690477   -0.007411
     13          6           0        1.259001   -0.705702   -0.056777
     14          6           0        1.240046    0.698765   -0.019260
     15          1           0       -2.497683   -2.457576   -0.017446
     16          1           0       -4.641923   -1.147029   -0.069192
     17          1           0       -4.603673    1.272613    0.118797
     18          1           0       -2.458326    2.410184    0.014646
     19          1           0        0.009203    2.410594    0.005566
     20          1           0        2.477433    2.496978    0.041718
     21          1           0        4.614822    1.272976    0.059720
     22          1           0        4.631969   -1.130379   -0.088084
     23          1           0        2.478655   -2.392537   -0.055562
     24          1           0       -0.008357   -1.940907   -0.842659
     25          1           0       -0.006360   -2.004925    0.875389
 ---------------------------------------------------------------------

 SCF Done:  E(RM062X) =  -539.711456038     A.U. after   15 cycles

 Excitation energies and oscillator strengths:

 Excited State   1:      Singlet-A      3.1139 eV  398.16 nm  f=0.0273  <S**2>=0.000
      47 -> 48         0.70315
 This state for optimization and/or second-order correction.
 Total Energy, E(TD-HF/TD-DFT) =  -539.597021577
 Copying the excited state density for this state as the 1-particle RhoCI density.

 The electronic state is 1-A.
 Alpha  occ. eigenvalues --  -10.76610 -10.72480 -10.72287 -10.71796 -10.71766
 Alpha  occ. eigenvalues --  -10.71650 -10.71383 -10.70773 -10.70619 -10.70089
 Alpha  occ. eigenvalues --  -10.69374 -10.69017 -10.68987 -10.68849  -1.18019
 Alpha  occ. eigenvalues --   -1.14152  -1.08808  -1.07008  -1.02324  -1.01176
 Alpha  occ. eigenvalues --   -0.96514  -0.92723  -0.86955  -0.85905  -0.83694
 Alpha  occ. eigenvalues --   -0.79392  -0.77325  -0.74243  -0.71961  -0.71453
 Alpha  occ. eigenvalues --   -0.69322  -0.68445  -0.66857  -0.66299  -0.63051
 Alpha  occ. eigenvalues --   -0.62276  -0.61859  -0.61552  -0.60802  -0.59805
 Alpha  occ. eigenvalues --   -0.56849  -0.55272  -0.53206  -0.52633  -0.47830
 Alpha  occ. eigenvalues --   -0.46144  -0.45500
 Alpha virt. eigenvalues --   -0.25850  -0.14418  -0.13424  -0.12032  -0.11179
 Alpha virt. eigenvalues --   -0.09892  -0.09368  -0.08267  -0.08007  -0.07436
 Alpha virt. eigenvalues --   -0.07169  -0.06878  -0.05644  -0.05520  -0.05175

 Mulliken charges:
               1
     1  C    0.016249
     2  C   -0.439401
     3  C   -0.409103
     4  C    0.121942
     5  C    0.257375
     6  C   -0.444807
     7  C   -0.334305
     8  C   -0.023245
     9  C   -0.409718
    10  C    0.045542
    11  C   -0.676147
    12  C    0.464139
    13  C   -0.661182
    14  C    0.930935
    15  H    0.250760
    16  H    0.259675
    17  H    0.228587
    18  H    0.220014
    19  H    0.173357
    20  H    0.249819
    21  H    0.230565
    22  H    0.254389
    23  H    0.236875
    24  H    0.229691
    25  H    0.227993
 Sum of Mulliken charges =   1.00000

 Dipole moment (field-independent basis, Debye):
    X=             -0.0432    Y=              0.3228    Z=             -0.0068  Tot=              0.3257
 Quadrupole moment (field-independent basis, Debye-Ang):
   XX=            -28.0479   YY=            -59.8934   ZZ=            -82.8919
   XY=              0.2428   XZ=             -0.4683   YZ=              0.5447

 Normal termination of Gaussian 16 at Wed Jul 27 12:06:40 2022.
