 Gaussian 16, Revision C.01,
 Gaussian 16:  ES64L-G16RevC.01  3-Jul-2019

 ---------------------------------------------------------------
 #n M062X/6-311++G(d,p) TD(NStates=1) EmpiricalDispersion=GD3 SP
 ---------------------------------------------------------------

 ----
 SP_4
 ----
 Symbolic Z-matrix:
 Charge =  1 Multiplicity = 1

                         Standard orientation:
 ---------------------------------------------------------------------
 Center     Atomic      Atomic             Coordinates (Angstroms)
 Number     Number       Type             X           Y           Z
 ---------------------------------------------------------------------
      1          6           0       -2.501800   -1.441039   -0.019513
      2          6           0       -3.706095   -0.720649   -0.020231
      3          6           0       -3.680120    0.710559    0.066149
      4          6           0       -2.453947    1.480957   -0.000207
      5          6           0        2.473013    1.500660   -0.022525
      6          6           0        3.688213    0.645832   -0.003903
      7          6           0        3.697050   -0.764579   -0.024962
      8          6           0        2.483721   -1.408682    0.023310
      9          6           0       -0.009933   -1.488749    0.063009
     10          6           0        0.010108    1.549639   -0.036673
     11          6           0       -1.265840   -0.646608   -0.052642
     12          6           0       -1.232533    0.765165   -0.023162
     13          6           0        1.257691   -0.634691    0.056925
     14          6           0        1.242547    0.773833   -0.010252
     15          1           0       -2.503567   -2.503298   -0.064614
     16          1           0       -4.644246   -1.286846   -0.118244
     17          1           0       -4.602168    1.270417    0.084379
     18          1           0       -2.452313    2.470594    0.041537
     19          1           0        0.016486    2.613767    0.008553
     20          1           0        2.483818    2.586137    0.023725
     21          1           0        4.616370    1.260720    0.144331
     22          1           0        4.629764   -1.271071   -0.096699
     23          1           0        2.473041   -2.422935   -0.019647
     24          1           0        0.000301   -2.284055   -0.846220
     25          1           0       -0.029933   -2.363317    0.870960
 ---------------------------------------------------------------------

 SCF Done:  E(RM062X) =  -539.687706173     A.U. after   17 cycles

 Excitation energies and oscillator strengths:

 Excited State   1:      Singlet-A      2.4384 eV  508.47 nm  f=0.0277  <S**2>=0.000
      47 -> 48         0.70468
 This state for optimization and/or second-order correction.
 Total Energy, E(TD-HF/TD-DFT) =  -539.598097940
 Copying the excited state density for this state as the 1-particle RhoCI density.

 The electronic state is 1-A.
 Alpha  occ. eigenvalues --  -10.78745 -10.74410 -10.74193 -10.73342 -10.73328
 Alpha  occ. eigenvalues --  -10.73205 -10.72388 -10.71548 -10.70937 -10.70826
 Alpha  occ. eigenvalues --  -10.70787 -10.70745 -10.70435 -10.69859  -1.14861
 Alpha  occ. eigenvalues --   -1.10880  -1.05899  -1.03842  -1.01119  -0.98310
 Alpha  occ. eigenvalues --   -0.95093  -0.89401  -0.86815  -0.84922  -0.84069
 Alpha  occ. eigenvalues --   -0.77585  -0.74550  -0.74330  -0.70579  -0.69790
 Alpha  occ. eigenvalues --   -0.68460  -0.67370  -0.65653  -0.65137  -0.64660
 Alpha  occ. eigenvalues --   -0.61987  -0.60254  -0.58494  -0.58186  -0.57950
 Alpha  occ. eigenvalues --   -0.57544  -0.56950  -0.52568  -0.51533  -0.46321
 Alpha  occ. eigenvalues --   -0.44938  -0.43304
 Alpha virt. eigenvalues --   -0.26465  -0.15914  -0.14297  -0.13581  -0.11250
 Alpha virt. eigenvalues --   -0.10358  -0.09143  -0.08512  -0.07836  -0.07540
 Alpha virt. eigenvalues --   -0.07413  -0.07168  -0.05751  -0.05694  -0.05581

 Mulliken charges:
               1
     1  C   -0.385866
     2  C   -0.202690
     3  C   -0.391404
     4  C   -0.181560
     5  C   -0.260005
     6  C   -0.330916
     7  C   -0.359416
     8  C   -0.048468
     9  C   -0.647345
    10  C   -0.139370
    11  C    0.006254
    12  C    0.928458
    13  C   -0.380490
    14  C    0.770390
    15  H    0.224481
    16  H    0.265655
    17  H    0.247762
    18  H    0.180868
    19  H    0.215146
    20  H    0.222362
    21  H    0.241683
    22  H    0.253835
    23  H    0.224880
    24  H    0.260022
    25  H    0.285738
 Sum of Mulliken charges =   1.00000

 Dipole moment (field-independent basis, Debye):
    X=             -0.0204    Y=              0.0547    Z=             -0.0129  Tot=              0.0598
 Quadrupole moment (field-independent basis, Debye-Ang):
   XX=            -34.1212   YY=            -52.6151   ZZ=            -85.4479
   XY=              0.3737   XZ=              0.5275   YZ=              0.7124

 Normal termination of Gaussian 16 at Wed Jul 27 12:08:58 2022.
