 Gaussian 16, Revision C.01,
 Gaussian 16:  ES64L-G16RevC.01  3-Jul-2019

 ---------------------------------------------------------------
 #n M062X/6-311++G(d,p) TD(NStates=1) EmpiricalDispersion=GD3 SP
 ---------------------------------------------------------------

 ----
 SP_0
 ----
 Symbolic Z-matrix:
 Charge =  1 Multiplicity = 1

                         Standard orientation:
 ---------------------------------------------------------------------
 Center     Atomic      Atomic             Coordinates (Angstroms)
 Number     Number       Type             X           Y           Z
 ---------------------------------------------------------------------
      1          6           0        0.000000    2.492700   -1.407563
      2          6           0       -0.024000    3.701500   -0.725163
      3          6           0       -0.048000    3.683900    0.687637
      4          6           0       -0.024000    2.463200    1.468437
      5          6           0        0.024000   -2.463200    1.468437
      6          6           0        0.048000   -3.683900    0.687637
      7          6           0        0.024000   -3.701500   -0.725163
      8          6           0       -0.000000   -2.492700   -1.407563
      9          6           0       -0.000000   -0.000000   -1.476563
     10          6           0        0.000000    0.000000    1.517037
     11          6           0        0.033000    1.262100   -0.649163
     12          6           0       -0.003000    1.237500    0.758637
     13          6           0       -0.033000   -1.262100   -0.649163
     14          6           0        0.003000   -1.237500    0.758637
     15          1           0        0.000000    2.488100   -2.457763
     16          1           0       -0.021000    4.636800   -1.264863
     17          1           0       -0.006000    4.609300    1.270237
     18          1           0       -0.024000    2.467500    2.517937
     19          1           0        0.000000    0.000000    2.586137
     20          1           0        0.024000   -2.467500    2.517937
     21          1           0        0.006000   -4.609300    1.270237
     22          1           0        0.021000   -4.636800   -1.264863
     23          1           0       -0.000000   -2.488100   -2.457763
     24          1           0        0.859600    0.000000   -2.276963
     25          1           0       -0.859600    0.000000   -2.276963
 ---------------------------------------------------------------------

 SCF Done:  E(RM062X) =  -539.724790036     A.U. after   16 cycles

 Excitation energies and oscillator strengths:

 Excited State   1:      Singlet-A      2.5507 eV  486.09 nm  f=0.0283  <S**2>=0.000
      47 -> 48         0.70469
 This state for optimization and/or second-order correction.
 Total Energy, E(TD-HF/TD-DFT) =  -539.631055333
 Copying the excited state density for this state as the 1-particle RhoCI density.

 The electronic state is 1-A.
 Alpha  occ. eigenvalues --  -10.78480 -10.73984 -10.73984 -10.73066 -10.73065
 Alpha  occ. eigenvalues --  -10.72599 -10.71564 -10.71564 -10.71088 -10.71088
 Alpha  occ. eigenvalues --  -10.70324 -10.70324 -10.70218 -10.70218  -1.15304
 Alpha  occ. eigenvalues --   -1.11283  -1.06127  -1.04339  -1.01225  -0.98790
 Alpha  occ. eigenvalues --   -0.95306  -0.89799  -0.86720  -0.85120  -0.84095
 Alpha  occ. eigenvalues --   -0.77781  -0.74844  -0.74509  -0.70158  -0.69587
 Alpha  occ. eigenvalues --   -0.68433  -0.67694  -0.65830  -0.65429  -0.64912
 Alpha  occ. eigenvalues --   -0.61989  -0.60889  -0.58778  -0.58325  -0.58190
 Alpha  occ. eigenvalues --   -0.57847  -0.56761  -0.53241  -0.51832  -0.46385
 Alpha  occ. eigenvalues --   -0.45313  -0.43646
 Alpha virt. eigenvalues --   -0.26355  -0.15593  -0.14103  -0.13412  -0.11211
 Alpha virt. eigenvalues --   -0.10276  -0.09162  -0.08280  -0.07845  -0.07519
 Alpha virt. eigenvalues --   -0.07298  -0.07223  -0.05681  -0.05667  -0.05504

 Mulliken charges:
               1
     1  C   -0.195334
     2  C   -0.301080
     3  C   -0.378695
     4  C   -0.217436
     5  C   -0.217436
     6  C   -0.378695
     7  C   -0.301080
     8  C   -0.195334
     9  C   -0.538804
    10  C   -0.110708
    11  C   -0.207840
    12  C    0.808242
    13  C   -0.207840
    14  C    0.808242
    15  H    0.229943
    16  H    0.258954
    17  H    0.248082
    18  H    0.207626
    19  H    0.213431
    20  H    0.207626
    21  H    0.248082
    22  H    0.258954
    23  H    0.229943
    24  H    0.265578
    25  H    0.265578
 Sum of Mulliken charges =   1.00000

 Dipole moment (field-independent basis, Debye):
    X=              0.0000    Y=              0.0000    Z=              0.0915  Tot=              0.0915
 Quadrupole moment (field-independent basis, Debye-Ang):
   XX=            -85.1278   YY=            -33.3373   ZZ=            -53.5552
   XY=              0.0794   XZ=              0.0000   YZ=              0.0000

 Normal termination of Gaussian 16 at Wed Jul 27 10:55:17 2022.
