 Gaussian 16, Revision C.01,
 Gaussian 16:  ES64L-G16RevC.01  3-Jul-2019

 ---------------------------------------------------------------
 #n M062X/6-311++G(d,p) TD(NStates=1) EmpiricalDispersion=GD3 SP
 ---------------------------------------------------------------

 -----
 SP_-4
 -----
 Symbolic Z-matrix:
 Charge =  1 Multiplicity = 1

                         Standard orientation:
 ---------------------------------------------------------------------
 Center     Atomic      Atomic             Coordinates (Angstroms)
 Number     Number       Type             X           Y           Z
 ---------------------------------------------------------------------
      1          6           0        2.484436   -1.376491    0.013299
      2          6           0        3.697303   -0.728706   -0.023256
      3          6           0        3.687925    0.662951    0.014203
      4          6           0        2.472109    1.460214   -0.017364
      5          6           0       -2.454577    1.440383   -0.006668
      6          6           0       -3.679812    0.728212    0.050830
      7          6           0       -3.705641   -0.685702   -0.019858
      8          6           0       -2.501209   -1.410445   -0.008950
      9          6           0       -0.009100   -1.473392    0.062480
     10          6           0        0.009113    1.491171   -0.038122
     11          6           0        1.258104   -0.651841    0.028325
     12          6           0        1.242127    0.755608   -0.013589
     13          6           0       -1.266036   -0.666559   -0.026872
     14          6           0       -1.232966    0.746327   -0.020274
     15          1           0        2.473779   -2.412685   -0.031531
     16          1           0        4.629885   -1.234735   -0.101285
     17          1           0        4.616510    1.263349    0.130413
     18          1           0        2.482882    2.567630    0.030820
     19          1           0        0.015379    2.563252    0.008381
     20          1           0       -2.452963    2.451958    0.036966
     21          1           0       -4.602167    1.270453    0.100574
     22          1           0       -4.644013   -1.252215   -0.112489
     23          1           0       -2.502947   -2.494640   -0.056004
     24          1           0       -0.009059   -2.276846    0.873194
     25          1           0       -0.017946   -2.195889   -0.844150
 ---------------------------------------------------------------------

 SCF Done:  E(RM062X) =  -539.730188123     A.U. after   16 cycles

 Excitation energies and oscillator strengths:

 Excited State   1:      Singlet-A      2.6270 eV  471.96 nm  f=0.0283  <S**2>=0.000
      47 -> 48         0.70448
 This state for optimization and/or second-order correction.
 Total Energy, E(TD-HF/TD-DFT) =  -539.633648114
 Copying the excited state density for this state as the 1-particle RhoCI density.

 The electronic state is 1-A.
 Alpha  occ. eigenvalues --  -10.78199 -10.73925 -10.73666 -10.72926 -10.72863
 Alpha  occ. eigenvalues --  -10.72218 -10.72119 -10.71505 -10.70798 -10.70663
 Alpha  occ. eigenvalues --  -10.70622 -10.70288 -10.69965 -10.69672  -1.15598
 Alpha  occ. eigenvalues --   -1.11636  -1.06355  -1.04797  -1.01185  -0.99215
 Alpha  occ. eigenvalues --   -0.95393  -0.90208  -0.86624  -0.85251  -0.84029
 Alpha  occ. eigenvalues --   -0.77922  -0.75198  -0.74469  -0.69932  -0.69466
 Alpha  occ. eigenvalues --   -0.68269  -0.67970  -0.66474  -0.65143  -0.64759
 Alpha  occ. eigenvalues --   -0.62004  -0.61618  -0.59143  -0.58993  -0.58134
 Alpha  occ. eigenvalues --   -0.57516  -0.56309  -0.53631  -0.51923  -0.46374
 Alpha  occ. eigenvalues --   -0.45520  -0.43874
 Alpha virt. eigenvalues --   -0.26262  -0.15317  -0.14127  -0.13266  -0.11205
 Alpha virt. eigenvalues --   -0.10221  -0.09182  -0.08230  -0.07892  -0.07512
 Alpha virt. eigenvalues --   -0.07317  -0.07167  -0.05683  -0.05655  -0.05467

 Mulliken charges:
               1
     1  C   -0.091207
     2  C   -0.352785
     3  C   -0.378830
     4  C   -0.164237
     5  C   -0.115382
     6  C   -0.438798
     7  C   -0.211368
     8  C   -0.358703
     9  C   -0.533296
    10  C   -0.100986
    11  C   -0.321839
    12  C    0.801522
    13  C   -0.062970
    14  C    0.715843
    15  H    0.223678
    16  H    0.252898
    17  H    0.248724
    18  H    0.230437
    19  H    0.197648
    20  H    0.189388
    21  H    0.250450
    22  H    0.263856
    23  H    0.227711
    24  H    0.271820
    25  H    0.256427
 Sum of Mulliken charges =   1.00000

 Dipole moment (field-independent basis, Debye):
    X=             -0.0354    Y=              0.1191    Z=             -0.0128  Tot=              0.1249
 Quadrupole moment (field-independent basis, Debye-Ang):
   XX=            -32.6713   YY=            -54.4161   ZZ=            -84.7817
   XY=              0.3660   XZ=              0.2881   YZ=              0.7173

 Normal termination of Gaussian 16 at Wed Jul 27 09:36:22 2022.
