 Gaussian 16, Revision C.01,
 Gaussian 16:  ES64L-G16RevC.01  3-Jul-2019

 ---------------------------------------------------------------
 #n M062X/6-311++G(d,p) TD(NStates=1) EmpiricalDispersion=GD3 SP
 ---------------------------------------------------------------

 ----
 SP_0
 ----
 Symbolic Z-matrix:
 Charge =  1 Multiplicity = 1

                         Standard orientation:
 ---------------------------------------------------------------------
 Center     Atomic      Atomic             Coordinates (Angstroms)
 Number     Number       Type             X           Y           Z
 ---------------------------------------------------------------------
      1          6           0        0.000000    2.492700   -1.423279
      2          6           0       -0.032000    3.701500   -0.742879
      3          6           0       -0.064000    3.683900    0.678921
      4          6           0       -0.032000    2.463200    1.488721
      5          6           0        0.032000   -2.463200    1.488721
      6          6           0        0.064000   -3.683900    0.678921
      7          6           0        0.032000   -3.701500   -0.742879
      8          6           0       -0.000000   -2.492700   -1.423279
      9          6           0       -0.000000   -0.000000   -1.484279
     10          6           0        0.000000    0.000000    1.546321
     11          6           0        0.044000    1.262100   -0.639879
     12          6           0       -0.004000    1.237500    0.767921
     13          6           0       -0.044000   -1.262100   -0.639879
     14          6           0        0.004000   -1.237500    0.767921
     15          1           0        0.000000    2.488100   -2.462479
     16          1           0       -0.028000    4.636800   -1.282579
     17          1           0       -0.008000    4.609300    1.269521
     18          1           0       -0.032000    2.467500    2.527221
     19          1           0        0.000000    0.000000    2.611421
     20          1           0        0.032000   -2.467500    2.527221
     21          1           0        0.008000   -4.609300    1.269521
     22          1           0        0.028000   -4.636800   -1.282579
     23          1           0       -0.000000   -2.488100   -2.462479
     24          1           0        0.859600   -0.000000   -2.320679
     25          1           0       -0.859600    0.000000   -2.320679
 ---------------------------------------------------------------------

 SCF Done:  E(RM062X) =  -539.700984231     A.U. after   16 cycles

 Excitation energies and oscillator strengths:

 Excited State   1:      Singlet-A      2.4542 eV  505.19 nm  f=0.0279  <S**2>=0.000
      47 -> 48         0.70479
 This state for optimization and/or second-order correction.
 Total Energy, E(TD-HF/TD-DFT) =  -539.610793549
 Copying the excited state density for this state as the 1-particle RhoCI density.

 The electronic state is 1-A.
 Alpha  occ. eigenvalues --  -10.78751 -10.74239 -10.74239 -10.73289 -10.73288
 Alpha  occ. eigenvalues --  -10.73144 -10.71644 -10.71644 -10.71128 -10.71128
 Alpha  occ. eigenvalues --  -10.70576 -10.70576 -10.70308 -10.70307  -1.14935
 Alpha  occ. eigenvalues --   -1.10906  -1.05909  -1.03856  -1.01199  -0.98336
 Alpha  occ. eigenvalues --   -0.95162  -0.89399  -0.86812  -0.84977  -0.84096
 Alpha  occ. eigenvalues --   -0.77623  -0.74511  -0.74436  -0.70477  -0.69836
 Alpha  occ. eigenvalues --   -0.68514  -0.67397  -0.65628  -0.65196  -0.64831
 Alpha  occ. eigenvalues --   -0.61995  -0.60181  -0.58485  -0.58134  -0.57956
 Alpha  occ. eigenvalues --   -0.57695  -0.57096  -0.52700  -0.51636  -0.46374
 Alpha  occ. eigenvalues --   -0.45011  -0.43356
 Alpha virt. eigenvalues --   -0.26459  -0.15890  -0.14237  -0.13533  -0.11237
 Alpha virt. eigenvalues --   -0.10346  -0.09143  -0.08442  -0.07816  -0.07534
 Alpha virt. eigenvalues --   -0.07342  -0.07225  -0.05706  -0.05701  -0.05562

 Mulliken charges:
               1
     1  C   -0.183151
     2  C   -0.299175
     3  C   -0.350875
     4  C   -0.277430
     5  C   -0.277430
     6  C   -0.350875
     7  C   -0.299175
     8  C   -0.183151
     9  C   -0.557367
    10  C   -0.102048
    11  C   -0.246622
    12  C    0.869492
    13  C   -0.246622
    14  C    0.869492
    15  H    0.229856
    16  H    0.259658
    17  H    0.245125
    18  H    0.202541
    19  H    0.223413
    20  H    0.202541
    21  H    0.245125
    22  H    0.259658
    23  H    0.229856
    24  H    0.268583
    25  H    0.268583
 Sum of Mulliken charges =   1.00000

 Dipole moment (field-independent basis, Debye):
    X=             -0.0000    Y=              0.0000    Z=              0.0588  Tot=              0.0588
 Quadrupole moment (field-independent basis, Debye-Ang):
   XX=            -85.4653   YY=            -34.0509   ZZ=            -52.6546
   XY=              0.1113   XZ=              0.0000   YZ=              0.0000

 Normal termination of Gaussian 16 at Wed Jul 27 10:54:00 2022.
