 Gaussian 16, Revision C.01,
 Gaussian 16:  ES64L-G16RevC.01  3-Jul-2019

 ---------------------------------------------------------------
 #n M062X/6-311++G(d,p) TD(NStates=1) EmpiricalDispersion=GD3 SP
 ---------------------------------------------------------------

 -----
 SP_-1
 -----
 Symbolic Z-matrix:
 Charge =  1 Multiplicity = 1

                         Standard orientation:
 ---------------------------------------------------------------------
 Center     Atomic      Atomic             Coordinates (Angstroms)
 Number     Number       Type             X           Y           Z
 ---------------------------------------------------------------------
      1          6           0        2.490687   -1.371885    0.005740
      2          6           0        3.700506   -0.695042   -0.005750
      3          6           0        3.684932    0.696815   -0.000254
      4          6           0        2.465315    1.430492   -0.006036
      5          6           0       -2.461120    1.425517   -0.000169
      6          6           0       -3.682901    0.713223    0.016876
      7          6           0       -3.702504   -0.684392   -0.004761
      8          6           0       -2.494720   -1.380584   -0.004558
      9          6           0       -0.002171   -1.461418    0.015580
     10          6           0        0.002156    1.458685   -0.009739
     11          6           0        1.261102   -0.665757    0.013611
     12          6           0        1.238595    0.741370   -0.002727
     13          6           0       -1.263057   -0.669799   -0.013600
     14          6           0       -1.236410    0.738971   -0.005817
     15          1           0        2.484550   -2.438013   -0.005933
     16          1           0        4.635067   -1.226907   -0.024155
     17          1           0        4.611101    1.270686    0.036457
     18          1           0        2.471177    2.513920    0.005841
     19          1           0        0.003709    2.535720    0.002054
     20          1           0       -2.463892    2.484959    0.011406
     21          1           0       -4.607496    1.272138    0.021622
     22          1           0       -4.638559   -1.231493   -0.029174
     23          1           0       -2.491675   -2.458725   -0.016355
     24          1           0       -0.002972   -2.199940    0.863471
     25          1           0       -0.003456   -2.179520   -0.855612
 ---------------------------------------------------------------------

 SCF Done:  E(RM062X) =  -539.753831560     A.U. after   15 cycles

 Excitation energies and oscillator strengths:

 Excited State   1:      Singlet-A      2.7342 eV  453.46 nm  f=0.0287  <S**2>=0.000
      47 -> 48         0.70441
 This state for optimization and/or second-order correction.
 Total Energy, E(TD-HF/TD-DFT) =  -539.653351999
 Copying the excited state density for this state as the 1-particle RhoCI density.

 The electronic state is 1-A.
 Alpha  occ. eigenvalues --  -10.77937 -10.73520 -10.73455 -10.72652 -10.72631
 Alpha  occ. eigenvalues --  -10.71604 -10.71519 -10.71251 -10.71137 -10.70919
 Alpha  occ. eigenvalues --  -10.70171 -10.69931 -10.69891 -10.69815  -1.16051
 Alpha  occ. eigenvalues --   -1.12061  -1.06633  -1.05287  -1.01276  -0.99716
 Alpha  occ. eigenvalues --   -0.95612  -0.90631  -0.86525  -0.85614  -0.83916
 Alpha  occ. eigenvalues --   -0.78170  -0.75640  -0.74459  -0.69577  -0.69312
 Alpha  occ. eigenvalues --   -0.68400  -0.68240  -0.67280  -0.64873  -0.64712
 Alpha  occ. eigenvalues --   -0.62349  -0.61923  -0.59484  -0.59373  -0.58774
 Alpha  occ. eigenvalues --   -0.57234  -0.55782  -0.54304  -0.52226  -0.46476
 Alpha  occ. eigenvalues --   -0.45865  -0.44217
 Alpha virt. eigenvalues --   -0.26170  -0.14984  -0.14066  -0.13006  -0.11184
 Alpha virt. eigenvalues --   -0.10146  -0.09203  -0.08047  -0.07928  -0.07489
 Alpha virt. eigenvalues --   -0.07218  -0.07191  -0.05651  -0.05608  -0.05388

 Mulliken charges:
               1
     1  C    0.074974
     2  C   -0.403928
     3  C   -0.443742
     4  C    0.003246
     5  C   -0.027282
     6  C   -0.437946
     7  C   -0.394249
     8  C    0.078517
     9  C   -0.371193
    10  C    0.097517
    11  C   -0.559645
    12  C    0.633338
    13  C   -0.561943
    14  C    0.684633
    15  H    0.233310
    16  H    0.255478
    17  H    0.250464
    18  H    0.222887
    19  H    0.196408
    20  H    0.211881
    21  H    0.250360
    22  H    0.257931
    23  H    0.237128
    24  H    0.256727
    25  H    0.255129
 Sum of Mulliken charges =   1.00000

 Dipole moment (field-independent basis, Debye):
    X=             -0.0102    Y=              0.1554    Z=             -0.0035  Tot=              0.1558
 Quadrupole moment (field-independent basis, Debye-Ang):
   XX=            -31.8744   YY=            -55.3567   ZZ=            -84.4661
   XY=              0.0902   XZ=              0.1329   YZ=              0.1804

 Normal termination of Gaussian 16 at Wed Jul 27 10:41:11 2022.
