 Gaussian 16, Revision C.01,
 Gaussian 16:  ES64L-G16RevC.01  3-Jul-2019

 ---------------------------------------------------------------
 #n M062X/6-311++G(d,p) TD(NStates=1) EmpiricalDispersion=GD3 SP
 ---------------------------------------------------------------

 ----
 SP_0
 ----
 Symbolic Z-matrix:
 Charge =  1 Multiplicity = 1

                         Standard orientation:
 ---------------------------------------------------------------------
 Center     Atomic      Atomic             Coordinates (Angstroms)
 Number     Number       Type             X           Y           Z
 ---------------------------------------------------------------------
      1          6           0        0.000000    2.492700   -1.391847
      2          6           0       -0.016000    3.701500   -0.707447
      3          6           0       -0.032000    3.683900    0.696353
      4          6           0       -0.016000    2.463200    1.448153
      5          6           0        0.016000   -2.463200    1.448153
      6          6           0        0.032000   -3.683900    0.696353
      7          6           0        0.016000   -3.701500   -0.707447
      8          6           0       -0.000000   -2.492700   -1.391847
      9          6           0        0.000000   -0.000000   -1.468847
     10          6           0       -0.000000    0.000000    1.487753
     11          6           0        0.022000    1.262100   -0.658447
     12          6           0       -0.002000    1.237500    0.749353
     13          6           0       -0.022000   -1.262100   -0.658447
     14          6           0        0.002000   -1.237500    0.749353
     15          1           0        0.000000    2.488100   -2.453047
     16          1           0       -0.014000    4.636800   -1.247147
     17          1           0       -0.004000    4.609300    1.270953
     18          1           0       -0.016000    2.467500    2.508653
     19          1           0       -0.000000    0.000000    2.560853
     20          1           0        0.016000   -2.467500    2.508653
     21          1           0        0.004000   -4.609300    1.270953
     22          1           0        0.014000   -4.636800   -1.247147
     23          1           0       -0.000000   -2.488100   -2.453047
     24          1           0        0.859600   -0.000000   -2.233247
     25          1           0       -0.859600    0.000000   -2.233247
 ---------------------------------------------------------------------

 SCF Done:  E(RM062X) =  -539.742743353     A.U. after   16 cycles

 Excitation energies and oscillator strengths:

 Excited State   1:      Singlet-A      2.6445 eV  468.84 nm  f=0.0286  <S**2>=0.000
      47 -> 48         0.70456
 This state for optimization and/or second-order correction.
 Total Energy, E(TD-HF/TD-DFT) =  -539.645559886
 Copying the excited state density for this state as the 1-particle RhoCI density.

 The electronic state is 1-A.
 Alpha  occ. eigenvalues --  -10.78208 -10.73732 -10.73731 -10.72849 -10.72848
 Alpha  occ. eigenvalues --  -10.72055 -10.71491 -10.71491 -10.71054 -10.71054
 Alpha  occ. eigenvalues --  -10.70132 -10.70132 -10.70081 -10.70081  -1.15677
 Alpha  occ. eigenvalues --   -1.11669  -1.06365  -1.04820  -1.01251  -0.99251
 Alpha  occ. eigenvalues --   -0.95458  -0.90210  -0.86625  -0.85352  -0.84016
 Alpha  occ. eigenvalues --   -0.77965  -0.75247  -0.74491  -0.69837  -0.69410
 Alpha  occ. eigenvalues --   -0.68335  -0.68066  -0.66526  -0.65111  -0.64928
 Alpha  occ. eigenvalues --   -0.61966  -0.61613  -0.59075  -0.58908  -0.58492
 Alpha  occ. eigenvalues --   -0.57555  -0.56301  -0.53780  -0.52030  -0.46412
 Alpha  occ. eigenvalues --   -0.45607  -0.43935
 Alpha virt. eigenvalues --   -0.26258  -0.15290  -0.14055  -0.13224  -0.11194
 Alpha virt. eigenvalues --   -0.10209  -0.09184  -0.08145  -0.07884  -0.07506
 Alpha virt. eigenvalues --   -0.07249  -0.07218  -0.05664  -0.05637  -0.05445

 Mulliken charges:
               1
     1  C   -0.202380
     2  C   -0.305103
     3  C   -0.404103
     4  C   -0.157585
     5  C   -0.157585
     6  C   -0.404103
     7  C   -0.305103
     8  C   -0.202380
     9  C   -0.497173
    10  C   -0.098986
    11  C   -0.184308
    12  C    0.737172
    13  C   -0.184308
    14  C    0.737172
    15  H    0.229965
    16  H    0.258399
    17  H    0.250060
    18  H    0.212541
    19  H    0.204563
    20  H    0.212541
    21  H    0.250060
    22  H    0.258399
    23  H    0.229965
    24  H    0.261141
    25  H    0.261141
 Sum of Mulliken charges =   1.00000

 Dipole moment (field-independent basis, Debye):
    X=              0.0000    Y=             -0.0000    Z=              0.1237  Tot=              0.1237
 Quadrupole moment (field-independent basis, Debye-Ang):
   XX=            -84.7936   YY=            -32.6103   ZZ=            -54.4564
   XY=              0.0494   XZ=             -0.0000   YZ=             -0.0000

 Normal termination of Gaussian 16 at Wed Jul 27 10:56:36 2022.
