 Gaussian 16, Revision C.01,
 Gaussian 16:  ES64L-G16RevC.01  3-Jul-2019

 ---------------------------------------------------------------
 #n M062X/6-311++G(d,p) TD(NStates=1) EmpiricalDispersion=GD3 SP
 ---------------------------------------------------------------

 -----
 SP_-1
 -----
 Symbolic Z-matrix:
 Charge =  1 Multiplicity = 1

                         Standard orientation:
 ---------------------------------------------------------------------
 Center     Atomic      Atomic             Coordinates (Angstroms)
 Number     Number       Type             X           Y           Z
 ---------------------------------------------------------------------
      1          6           0        2.490368   -1.419325    0.020934
      2          6           0        3.700504   -0.748354   -0.007416
      3          6           0        3.685303    0.670782   -0.026156
      4          6           0        2.465766    1.491321   -0.014662
      5          6           0       -2.461005    1.486383    0.008957
      6          6           0       -3.683281    0.686969    0.041725
      7          6           0       -3.702764   -0.737371   -0.003885
      8          6           0       -2.494883   -1.427431   -0.019969
      9          6           0       -0.002479   -1.484558    0.015776
     10          6           0        0.002524    1.546529   -0.009186
     11          6           0        1.260684   -0.638434    0.054889
     12          6           0        1.238745    0.769106    0.001957
     13          6           0       -1.262720   -0.641420   -0.053811
     14          6           0       -1.236244    0.766933   -0.010327
     15          1           0        2.484222   -2.452459    0.009953
     16          1           0        4.635071   -1.280371   -0.016911
     17          1           0        4.610991    1.268068    0.058327
     18          1           0        2.471638    2.541754   -0.003483
     19          1           0        0.004118    2.611568    0.002127
     20          1           0       -2.463768    2.512831    0.019788
     21          1           0       -4.607439    1.270480   -0.001105
     22          1           0       -4.638693   -1.284334   -0.036865
     23          1           0       -2.491848   -2.472578   -0.031013
     24          1           0       -0.008736   -2.330796    0.862638
     25          1           0        0.001336   -2.310938   -0.856423
 ---------------------------------------------------------------------

 SCF Done:  E(RM062X) =  -539.700127936     A.U. after   16 cycles

 Excitation energies and oscillator strengths:

 Excited State   1:      Singlet-A      2.4531 eV  505.42 nm  f=0.0279  <S**2>=0.000
      47 -> 48         0.70478
 This state for optimization and/or second-order correction.
 Total Energy, E(TD-HF/TD-DFT) =  -539.609978561
 Copying the excited state density for this state as the 1-particle RhoCI density.

 The electronic state is 1-A.
 Alpha  occ. eigenvalues --  -10.78751 -10.74271 -10.74215 -10.73293 -10.73289
 Alpha  occ. eigenvalues --  -10.73148 -10.71828 -10.71463 -10.71227 -10.71033
 Alpha  occ. eigenvalues --  -10.70625 -10.70533 -10.70425 -10.70192  -1.14931
 Alpha  occ. eigenvalues --   -1.10904  -1.05908  -1.03855  -1.01194  -0.98335
 Alpha  occ. eigenvalues --   -0.95158  -0.89399  -0.86812  -0.84973  -0.84095
 Alpha  occ. eigenvalues --   -0.77621  -0.74517  -0.74426  -0.70484  -0.69832
 Alpha  occ. eigenvalues --   -0.68510  -0.67396  -0.65630  -0.65190  -0.64821
 Alpha  occ. eigenvalues --   -0.61994  -0.60188  -0.58486  -0.58140  -0.57959
 Alpha  occ. eigenvalues --   -0.57675  -0.57087  -0.52691  -0.51629  -0.46371
 Alpha  occ. eigenvalues --   -0.45006  -0.43352
 Alpha virt. eigenvalues --   -0.26459  -0.15891  -0.14241  -0.13536  -0.11238
 Alpha virt. eigenvalues --   -0.10347  -0.09143  -0.08447  -0.07818  -0.07534
 Alpha virt. eigenvalues --   -0.07348  -0.07220  -0.05712  -0.05698  -0.05562

 Mulliken charges:
               1
     1  C   -0.133816
     2  C   -0.322169
     3  C   -0.346012
     4  C   -0.273609
     5  C   -0.262394
     6  C   -0.357925
     7  C   -0.273968
     8  C   -0.234008
     9  C   -0.575483
    10  C   -0.107938
    11  C   -0.315249
    12  C    0.821834
    13  C   -0.152089
    14  C    0.898358
    15  H    0.229717
    16  H    0.257953
    17  H    0.244345
    18  H    0.207758
    19  H    0.222639
    20  H    0.197510
    21  H    0.245860
    22  H    0.261399
    23  H    0.228611
    24  H    0.272509
    25  H    0.266169
 Sum of Mulliken charges =   1.00000

 Dipole moment (field-independent basis, Debye):
    X=             -0.0049    Y=              0.0586    Z=             -0.0036  Tot=              0.0589
 Quadrupole moment (field-independent basis, Debye-Ang):
   XX=            -34.0600   YY=            -52.6522   ZZ=            -85.4593
   XY=              0.0925   XZ=              0.5360   YZ=              0.1786

 Normal termination of Gaussian 16 at Wed Jul 27 10:34:17 2022.
