 Gaussian 16, Revision C.01,
 Gaussian 16:  ES64L-G16RevC.01  3-Jul-2019

 ---------------------------------------------------------------
 #n M062X/6-311++G(d,p) TD(NStates=1) EmpiricalDispersion=GD3 SP
 ---------------------------------------------------------------

 -----
 SP_-1
 -----
 Symbolic Z-matrix:
 Charge =  1 Multiplicity = 1

                         Standard orientation:
 ---------------------------------------------------------------------
 Center     Atomic      Atomic             Coordinates (Angstroms)
 Number     Number       Type             X           Y           Z
 ---------------------------------------------------------------------
      1          6           0        2.490903   -1.324445   -0.009428
      2          6           0        3.700655   -0.641747   -0.004049
      3          6           0        3.685013    0.722815    0.025671
      4          6           0        2.465076    1.369648    0.002558
      5          6           0       -2.461425    1.364667   -0.009330
      6          6           0       -3.682972    0.739508   -0.007957
      7          6           0       -3.702407   -0.631397   -0.005608
      8          6           0       -2.494473   -1.333736    0.010875
      9          6           0       -0.001872   -1.438278    0.015393
     10          6           0        0.001802    1.370843   -0.010341
     11          6           0        1.261066   -0.693059   -0.027688
     12          6           0        1.238441    0.713632   -0.007426
     13          6           0       -1.262942   -0.698199    0.026590
     14          6           0       -1.236560    0.711011   -0.001322
     15          1           0        2.484773   -2.423568   -0.021818
     16          1           0        4.635136   -1.173458   -0.031368
     17          1           0        4.611116    1.273299    0.014596
     18          1           0        2.470930    2.486070    0.015161
     19          1           0        0.003318    2.459873    0.001945
     20          1           0       -2.464205    2.457103    0.003015
     21          1           0       -4.607447    1.273800    0.044354
     22          1           0       -4.638517   -1.178638   -0.021455
     23          1           0       -2.491420   -2.444871   -0.001699
     24          1           0        0.002770   -2.069088    0.864345
     25          1           0       -0.008270   -2.048101   -0.854696
 ---------------------------------------------------------------------

 SCF Done:  E(RM062X) =  -539.751406107     A.U. after   15 cycles

 Excitation energies and oscillator strengths:

 Excited State   1:      Singlet-A      2.9839 eV  415.52 nm  f=0.0283  <S**2>=0.000
      47 -> 48         0.70394
 This state for optimization and/or second-order correction.
 Total Energy, E(TD-HF/TD-DFT) =  -539.641750999
 Copying the excited state density for this state as the 1-particle RhoCI density.

 The electronic state is 1-A.
 Alpha  occ. eigenvalues --  -10.77133 -10.72812 -10.72744 -10.72073 -10.72039
 Alpha  occ. eigenvalues --  -10.71454 -10.71118 -10.71102 -10.70861 -10.69954
 Alpha  occ. eigenvalues --  -10.69948 -10.69713 -10.69262 -10.69203  -1.17230
 Alpha  occ. eigenvalues --   -1.13297  -1.07762  -1.06460  -1.01526  -1.00984
 Alpha  occ. eigenvalues --   -0.96135  -0.91905  -0.86457  -0.86183  -0.83687
 Alpha  occ. eigenvalues --   -0.78889  -0.76737  -0.74322  -0.70384  -0.69926
 Alpha  occ. eigenvalues --   -0.69231  -0.68249  -0.67816  -0.64931  -0.63796
 Alpha  occ. eigenvalues --   -0.63298  -0.61721  -0.60977  -0.60283  -0.59588
 Alpha  occ. eigenvalues --   -0.56280  -0.55736  -0.53977  -0.52850  -0.47176
 Alpha  occ. eigenvalues --   -0.46176  -0.45039
 Alpha virt. eigenvalues --   -0.25952  -0.14219  -0.14036  -0.12349  -0.11179
 Alpha virt. eigenvalues --   -0.09980  -0.09293  -0.08106  -0.07935  -0.07454
 Alpha virt. eigenvalues --   -0.07187  -0.07011  -0.05636  -0.05540  -0.05238

 Mulliken charges:
               1
     1  C    0.074724
     2  C   -0.414655
     3  C   -0.444881
     4  C    0.105271
     5  C    0.082110
     6  C   -0.436867
     7  C   -0.436230
     8  C    0.070086
     9  C   -0.256220
    10  C    0.105463
    11  C   -0.703134
    12  C    0.742774
    13  C   -0.736279
    14  C    0.655765
    15  H    0.238618
    16  H    0.255171
    17  H    0.240844
    18  H    0.235954
    19  H    0.181095
    20  H    0.225890
    21  H    0.239725
    22  H    0.257318
    23  H    0.242909
    24  H    0.237195
    25  H    0.237352
 Sum of Mulliken charges =   1.00000

 Dipole moment (field-independent basis, Debye):
    X=             -0.0131    Y=              0.2540    Z=             -0.0032  Tot=              0.2544
 Quadrupole moment (field-independent basis, Debye-Ang):
   XX=            -29.5814   YY=            -58.0756   ZZ=            -83.5070
   XY=              0.0862   XZ=             -0.2408   YZ=              0.1816

 Normal termination of Gaussian 16 at Wed Jul 27 10:48:09 2022.
