 Gaussian 16, Revision C.01,
 Gaussian 16:  ES64L-G16RevC.01  3-Jul-2019

 ---------------------------------------------------------------
 #n M062X/6-311++G(d,p) TD(NStates=1) EmpiricalDispersion=GD3 SP
 ---------------------------------------------------------------

 ----
 SP_3
 ----
 Symbolic Z-matrix:
 Charge =  1 Multiplicity = 1

                         Standard orientation:
 ---------------------------------------------------------------------
 Center     Atomic      Atomic             Coordinates (Angstroms)
 Number     Number       Type             X           Y           Z
 ---------------------------------------------------------------------
      1          6           0       -2.498828   -1.390089   -0.003941
      2          6           0       -3.704473   -0.673626   -0.014964
      3          6           0       -3.680805    0.729228    0.034076
      4          6           0       -2.456970    1.421639   -0.006724
      5          6           0        2.469562    1.436545   -0.011855
      6          6           0        3.686899    0.680014    0.015776
      7          6           0        3.698475   -0.705576   -0.016564
      8          6           0        2.486722   -1.364020    0.007459
      9          6           0       -0.006521   -1.463710    0.046701
     10          6           0        0.006472    1.460421   -0.029186
     11          6           0       -1.265049   -0.674206   -0.013863
     12          6           0       -1.234247    0.737394   -0.014529
     13          6           0        1.259179   -0.662093    0.013884
     14          6           0        1.240807    0.744581   -0.011076
     15          1           0       -2.498944   -2.479714   -0.039767
     16          1           0       -4.642114   -1.234214   -0.082939
     17          1           0       -4.603922    1.271549    0.079480
     18          1           0       -2.456790    2.456598    0.027155
     19          1           0        0.011132    2.536934    0.006183
     20          1           0        2.478654    2.543420    0.024605
     21          1           0        4.614736    1.267172    0.094683
     22          1           0        4.631642   -1.220488   -0.076981
     23          1           0        2.477561   -2.417628   -0.027103
     24          1           0       -0.001845   -2.160734   -0.847281
     25          1           0       -0.017453   -2.221906    0.870802
 ---------------------------------------------------------------------

 SCF Done:  E(RM062X) =  -539.747837156     A.U. after   15 cycles

 Excitation energies and oscillator strengths:

 Excited State   1:      Singlet-A      2.7252 eV  454.95 nm  f=0.0286  <S**2>=0.000
      47 -> 48         0.70438
 This state for optimization and/or second-order correction.
 Total Energy, E(TD-HF/TD-DFT) =  -539.647686863
 Copying the excited state density for this state as the 1-particle RhoCI density.

 The electronic state is 1-A.
 Alpha  occ. eigenvalues --  -10.77932 -10.73615 -10.73425 -10.72695 -10.72634
 Alpha  occ. eigenvalues --  -10.71963 -10.71551 -10.71370 -10.70908 -10.70714
 Alpha  occ. eigenvalues --  -10.70416 -10.69990 -10.69763 -10.69699  -1.16011
 Alpha  occ. eigenvalues --   -1.12043  -1.06627  -1.05274  -1.01246  -0.99695
 Alpha  occ. eigenvalues --   -0.95581  -0.90628  -0.86524  -0.85559  -0.83923
 Alpha  occ. eigenvalues --   -0.78148  -0.75611  -0.74450  -0.69618  -0.69388
 Alpha  occ. eigenvalues --   -0.68319  -0.68195  -0.67253  -0.64888  -0.64639
 Alpha  occ. eigenvalues --   -0.62378  -0.61907  -0.59558  -0.59361  -0.58610
 Alpha  occ. eigenvalues --   -0.57216  -0.55794  -0.54223  -0.52171  -0.46461
 Alpha  occ. eigenvalues --   -0.45816  -0.44185
 Alpha virt. eigenvalues --   -0.26171  -0.14998  -0.14102  -0.13027  -0.11189
 Alpha virt. eigenvalues --   -0.10152  -0.09202  -0.08102  -0.07919  -0.07492
 Alpha virt. eigenvalues --   -0.07247  -0.07172  -0.05656  -0.05620  -0.05400

 Mulliken charges:
               1
     1  C    0.079926
     2  C   -0.370326
     3  C   -0.434455
     4  C   -0.054633
     5  C    0.016906
     6  C   -0.444844
     7  C   -0.400138
     8  C    0.068451
     9  C   -0.418632
    10  C    0.090463
    11  C   -0.569248
    12  C    0.769996
    13  C   -0.588258
    14  C    0.635740
    15  H    0.240067
    16  H    0.260072
    17  H    0.250060
    18  H    0.199675
    19  H    0.192903
    20  H    0.231698
    21  H    0.250357
    22  H    0.253068
    23  H    0.227911
    24  H    0.253789
    25  H    0.259454
 Sum of Mulliken charges =   1.00000

 Dipole moment (field-independent basis, Debye):
    X=             -0.0309    Y=              0.1533    Z=             -0.0099  Tot=              0.1567
 Quadrupole moment (field-independent basis, Debye-Ang):
   XX=            -31.9018   YY=            -55.3359   ZZ=            -84.4614
   XY=              0.2726   XZ=              0.1268   YZ=              0.5403

 Normal termination of Gaussian 16 at Wed Jul 27 11:55:18 2022.
