 Gaussian 16, Revision C.01,
 Gaussian 16:  ES64L-G16RevC.01  3-Jul-2019

 ---------------------------------------------------------------
 #n M062X/6-311++G(d,p) TD(NStates=1) EmpiricalDispersion=GD3 SP
 ---------------------------------------------------------------

 ----
 SP_0
 ----
 Symbolic Z-matrix:
 Charge =  1 Multiplicity = 1

                         Standard orientation:
 ---------------------------------------------------------------------
 Center     Atomic      Atomic             Coordinates (Angstroms)
 Number     Number       Type             X           Y           Z
 ---------------------------------------------------------------------
      1          6           0       -0.000000    2.492700    1.328984
      2          6           0       -0.016000    3.701500    0.636584
      3          6           0       -0.032000    3.683900   -0.731216
      4          6           0       -0.016000    2.463200   -1.367016
      5          6           0        0.016000   -2.463200   -1.367016
      6          6           0        0.032000   -3.683900   -0.731216
      7          6           0        0.016000   -3.701500    0.636584
      8          6           0       -0.000000   -2.492700    1.328984
      9          6           0        0.000000    0.000000    1.437984
     10          6           0        0.000000   -0.000000   -1.370616
     11          6           0        0.022000    1.262100    0.695584
     12          6           0       -0.002000    1.237500   -0.712216
     13          6           0       -0.022000   -1.262100    0.695584
     14          6           0        0.002000   -1.237500   -0.712216
     15          1           0       -0.000000    2.488100    2.434184
     16          1           0       -0.014000    4.636800    1.176284
     17          1           0       -0.004000    4.609300   -1.273816
     18          1           0       -0.016000    2.467500   -2.471516
     19          1           0        0.000000   -0.000000   -2.459716
     20          1           0        0.016000   -2.467500   -2.471516
     21          1           0        0.004000   -4.609300   -1.273816
     22          1           0        0.014000   -4.636800    1.176284
     23          1           0       -0.000000   -2.488100    2.434184
     24          1           0       -0.859600    0.000000    2.058384
     25          1           0        0.859600   -0.000000    2.058384
 ---------------------------------------------------------------------

 SCF Done:  E(RM062X) =  -539.752054704     A.U. after   15 cycles

 Excitation energies and oscillator strengths:

 Excited State   1:      Singlet-A      2.9852 eV  415.33 nm  f=0.0283  <S**2>=0.000
      47 -> 48         0.70395
 This state for optimization and/or second-order correction.
 Total Energy, E(TD-HF/TD-DFT) =  -539.642351442
 Copying the excited state density for this state as the 1-particle RhoCI density.

 The electronic state is 1-A.
 Alpha  occ. eigenvalues --  -10.77134 -10.72774 -10.72773 -10.72054 -10.72052
 Alpha  occ. eigenvalues --  -10.71285 -10.71285 -10.70980 -10.70980 -10.69944
 Alpha  occ. eigenvalues --  -10.69832 -10.69832 -10.69229 -10.69229  -1.17236
 Alpha  occ. eigenvalues --   -1.13300  -1.07764  -1.06461  -1.01530  -1.00987
 Alpha  occ. eigenvalues --   -0.96139  -0.91906  -0.86462  -0.86186  -0.83687
 Alpha  occ. eigenvalues --   -0.78892  -0.76741  -0.74322  -0.70375  -0.69933
 Alpha  occ. eigenvalues --   -0.69234  -0.68250  -0.67819  -0.64931  -0.63793
 Alpha  occ. eigenvalues --   -0.63306  -0.61718  -0.60976  -0.60282  -0.59606
 Alpha  occ. eigenvalues --   -0.56285  -0.55743  -0.53975  -0.52858  -0.47179
 Alpha  occ. eigenvalues --   -0.46181  -0.45044
 Alpha virt. eigenvalues --   -0.25952  -0.14215  -0.14034  -0.12346  -0.11178
 Alpha virt. eigenvalues --   -0.09979  -0.09293  -0.08101  -0.07935  -0.07454
 Alpha virt. eigenvalues --   -0.07188  -0.07008  -0.05636  -0.05538  -0.05236

 Mulliken charges:
               1
     1  C    0.075487
     2  C   -0.430577
     3  C   -0.441296
     4  C    0.088513
     5  C    0.088513
     6  C   -0.441296
     7  C   -0.430577
     8  C    0.075487
     9  C   -0.239840
    10  C    0.108682
    11  C   -0.724092
    12  C    0.701113
    13  C   -0.724092
    14  C    0.701113
    15  H    0.240979
    16  H    0.256232
    17  H    0.240158
    18  H    0.231194
    19  H    0.181654
    20  H    0.231194
    21  H    0.240158
    22  H    0.256232
    23  H    0.240979
    24  H    0.237041
    25  H    0.237041
 Sum of Mulliken charges =   1.00000

 Dipole moment (field-independent basis, Debye):
    X=              0.0000    Y=              0.0000    Z=             -0.2543  Tot=              0.2543
 Quadrupole moment (field-independent basis, Debye-Ang):
   XX=            -83.5085   YY=            -29.5772   ZZ=            -58.0782
   XY=              0.0247   XZ=              0.0000   YZ=             -0.0000

 Normal termination of Gaussian 16 at Wed Jul 27 11:01:20 2022.
