 Gaussian 16, Revision C.01,
 Gaussian 16:  ES64L-G16RevC.01  3-Jul-2019

 ---------------------------------------------------------------
 #n M062X/6-311++G(d,p) TD(NStates=1) EmpiricalDispersion=GD3 SP
 ---------------------------------------------------------------

 ----
 SP_3
 ----
 Symbolic Z-matrix:
 Charge =  1 Multiplicity = 1

                         Standard orientation:
 ---------------------------------------------------------------------
 Center     Atomic      Atomic             Coordinates (Angstroms)
 Number     Number       Type             X           Y           Z
 ---------------------------------------------------------------------
      1          6           0       -2.499475   -1.436313   -0.019547
      2          6           0       -3.704992   -0.726255   -0.014891
      3          6           0       -3.681191    0.702790    0.057840
      4          6           0       -2.456289    1.482499    0.002905
      5          6           0        2.470583    1.497292   -0.019984
      6          6           0        3.687260    0.654235   -0.011144
      7          6           0        3.698210   -0.759205   -0.019008
      8          6           0        2.485921   -1.412024    0.022417
      9          6           0       -0.007445   -1.486794    0.047290
     10          6           0        0.007577    1.548188   -0.027529
     11          6           0       -1.264790   -0.644786   -0.052979
     12          6           0       -1.233765    0.765554   -0.018860
     13          6           0        1.258681   -0.635839    0.056202
     14          6           0        1.241272    0.772064   -0.006224
     15          1           0       -2.499622   -2.492993   -0.053163
     16          1           0       -4.642379   -1.286469   -0.091068
     17          1           0       -4.603917    1.270927    0.055908
     18          1           0       -2.456086    2.484511    0.034627
     19          1           0        0.012360    2.612741    0.006398
     20          1           0        2.479707    2.571219    0.014304
     21          1           0        4.614570    1.263668    0.115685
     22          1           0        4.631516   -1.274615   -0.070196
     23          1           0        2.476734   -2.432682   -0.010025
     24          1           0        0.001978   -2.292631   -0.849708
     25          1           0       -0.024193   -2.352111    0.868306
 ---------------------------------------------------------------------

 SCF Done:  E(RM062X) =  -539.693539734     A.U. after   17 cycles

 Excitation energies and oscillator strengths:

 Excited State   1:      Singlet-A      2.4454 eV  507.02 nm  f=0.0278  <S**2>=0.000
      47 -> 48         0.70473
 This state for optimization and/or second-order correction.
 Total Energy, E(TD-HF/TD-DFT) =  -539.603674490
 Copying the excited state density for this state as the 1-particle RhoCI density.

 The electronic state is 1-A.
 Alpha  occ. eigenvalues --  -10.78748 -10.74356 -10.74193 -10.73320 -10.73309
 Alpha  occ. eigenvalues --  -10.73179 -10.72200 -10.71437 -10.71109 -10.70860
 Alpha  occ. eigenvalues --  -10.70731 -10.70665 -10.70462 -10.69968  -1.14893
 Alpha  occ. eigenvalues --   -1.10891  -1.05903  -1.03848  -1.01154  -0.98322
 Alpha  occ. eigenvalues --   -0.95123  -0.89400  -0.86814  -0.84945  -0.84082
 Alpha  occ. eigenvalues --   -0.77602  -0.74540  -0.74368  -0.70537  -0.69807
 Alpha  occ. eigenvalues --   -0.68483  -0.67383  -0.65646  -0.65162  -0.64731
 Alpha  occ. eigenvalues --   -0.61991  -0.60221  -0.58491  -0.58170  -0.57963
 Alpha  occ. eigenvalues --   -0.57593  -0.57016  -0.52625  -0.51578  -0.46344
 Alpha  occ. eigenvalues --   -0.44970  -0.43327
 Alpha virt. eigenvalues --   -0.26462  -0.15903  -0.14270  -0.13560  -0.11245
 Alpha virt. eigenvalues --   -0.10353  -0.09143  -0.08481  -0.07827  -0.07537
 Alpha virt. eigenvalues --   -0.07388  -0.07187  -0.05734  -0.05693  -0.05574

 Mulliken charges:
               1
     1  C   -0.337749
     2  C   -0.226913
     3  C   -0.378717
     4  C   -0.208158
     5  C   -0.260216
     6  C   -0.336380
     7  C   -0.351518
     8  C   -0.068558
     9  C   -0.638722
    10  C   -0.130758
    11  C   -0.018115
    12  C    0.922538
    13  C   -0.363783
    14  C    0.768951
    15  H    0.225828
    16  H    0.264425
    17  H    0.247176
    18  H    0.186739
    19  H    0.218214
    20  H    0.217819
    21  H    0.242624
    22  H    0.255023
    23  H    0.227189
    24  H    0.262002
    25  H    0.281059
 Sum of Mulliken charges =   1.00000

 Dipole moment (field-independent basis, Debye):
    X=             -0.0151    Y=              0.0566    Z=             -0.0100  Tot=              0.0595
 Quadrupole moment (field-independent basis, Debye-Ang):
   XX=            -34.0921   YY=            -52.6326   ZZ=            -85.4533
   XY=              0.2792   XZ=              0.5271   YZ=              0.5349

 Normal termination of Gaussian 16 at Wed Jul 27 11:48:31 2022.
