 Gaussian 16, Revision C.01,
 Gaussian 16:  ES64L-G16RevC.01  3-Jul-2019

 ---------------------------------------------------------------
 #n M062X/6-311++G(d,p) TD(NStates=1) EmpiricalDispersion=GD3 SP
 ---------------------------------------------------------------

 -----
 SP_-4
 -----
 Symbolic Z-matrix:
 Charge =  1 Multiplicity = 1

                         Standard orientation:
 ---------------------------------------------------------------------
 Center     Atomic      Atomic             Coordinates (Angstroms)
 Number     Number       Type             X           Y           Z
 ---------------------------------------------------------------------
      1          6           0        2.486207   -1.279954   -0.016132
      2          6           0        3.698388   -0.621309   -0.017306
      3          6           0        3.688274    0.713919    0.069209
      4          6           0        2.470078    1.338694   -0.001909
      5          6           0       -2.456869    1.318865   -0.026734
      6          6           0       -3.680084    0.781534    0.004594
      7          6           0       -3.704776   -0.580664   -0.018897
      8          6           0       -2.499303   -1.318644    0.022665
      9          6           0       -0.006710   -1.427323    0.060982
     10          6           0        0.006297    1.315788   -0.043001
     11          6           0        1.258118   -0.703061   -0.057511
     12          6           0        1.240908    0.700901   -0.023590
     13          6           0       -1.265417   -0.726617    0.050041
     14          6           0       -1.234169    0.689854   -0.011934
     15          1           0        2.475602   -2.381954   -0.066849
     16          1           0        4.630365   -1.125935   -0.114097
     17          1           0        4.616708    1.271134    0.089339
     18          1           0        2.480773    2.511906    0.052348
     19          1           0        0.012269    2.411718    0.007451
     20          1           0       -2.455299    2.396240    0.022831
     21          1           0       -4.601841    1.270642    0.148591
     22          1           0       -4.643639   -1.148131   -0.095523
     23          1           0       -2.500971   -2.468631   -0.030511
     24          1           0        0.005202   -2.017181    0.880224
     25          1           0       -0.024821   -1.931704   -0.836662
 ---------------------------------------------------------------------

 SCF Done:  E(RM062X) =  -539.707458257     A.U. after   15 cycles

 Excitation energies and oscillator strengths:

 Excited State   1:      Singlet-A      3.1038 eV  399.46 nm  f=0.0273  <S**2>=0.000
      47 -> 48         0.70280
 This state for optimization and/or second-order correction.
 Total Energy, E(TD-HF/TD-DFT) =  -539.593396205
 Copying the excited state density for this state as the 1-particle RhoCI density.

 The electronic state is 1-A.
 Alpha  occ. eigenvalues --  -10.76604 -10.72551 -10.72274 -10.71923 -10.71838
 Alpha  occ. eigenvalues --  -10.71656 -10.71522 -10.70622 -10.70502 -10.70214
 Alpha  occ. eigenvalues --  -10.69260 -10.69051 -10.69031 -10.68850  -1.17980
 Alpha  occ. eigenvalues --   -1.14131  -1.08792  -1.07004  -1.02296  -1.01158
 Alpha  occ. eigenvalues --   -0.96492  -0.92714  -0.86915  -0.85891  -0.83688
 Alpha  occ. eigenvalues --   -0.79369  -0.77290  -0.74244  -0.71934  -0.71473
 Alpha  occ. eigenvalues --   -0.69293  -0.68432  -0.66886  -0.66267  -0.63063
 Alpha  occ. eigenvalues --   -0.62296  -0.61872  -0.61499  -0.60814  -0.59706
 Alpha  occ. eigenvalues --   -0.56769  -0.55258  -0.53161  -0.52648  -0.47803
 Alpha  occ. eigenvalues --   -0.46112  -0.45464
 Alpha virt. eigenvalues --   -0.25849  -0.14444  -0.13439  -0.12054  -0.11181
 Alpha virt. eigenvalues --   -0.09899  -0.09366  -0.08295  -0.08004  -0.07439
 Alpha virt. eigenvalues --   -0.07167  -0.06901  -0.05647  -0.05533  -0.05182

 Mulliken charges:
               1
     1  C   -0.023394
     2  C   -0.304469
     3  C   -0.450760
     4  C    0.276782
     5  C    0.115687
     6  C   -0.401257
     7  C   -0.429392
     8  C    0.015823
     9  C   -0.453031
    10  C    0.035501
    11  C   -0.667990
    12  C    0.944516
    13  C   -0.666475
    14  C    0.451476
    15  H    0.233287
    16  H    0.254102
    17  H    0.232957
    18  H    0.250433
    19  H    0.170311
    20  H    0.212312
    21  H    0.230226
    22  H    0.260019
    23  H    0.252340
    24  H    0.230244
    25  H    0.230751
 Sum of Mulliken charges =   1.00000

 Dipole moment (field-independent basis, Debye):
    X=             -0.0595    Y=              0.3195    Z=             -0.0086  Tot=              0.3251
 Quadrupole moment (field-independent basis, Debye-Ang):
   XX=            -28.0811   YY=            -59.8701   ZZ=            -82.8889
   XY=              0.3226   XZ=             -0.4356   YZ=              0.7239

 Normal termination of Gaussian 16 at Wed Jul 27 09:50:19 2022.
