 Gaussian 16, Revision C.01,
 Gaussian 16:  ES64L-G16RevC.01  3-Jul-2019

 ---------------------------------------------------------------
 #n M062X/6-311++G(d,p) TD(NStates=1) EmpiricalDispersion=GD3 SP
 ---------------------------------------------------------------

 ----
 SP_4
 ----
 Symbolic Z-matrix:
 Charge =  1 Multiplicity = 1

                         Standard orientation:
 ---------------------------------------------------------------------
 Center     Atomic      Atomic             Coordinates (Angstroms)
 Number     Number       Type             X           Y           Z
 ---------------------------------------------------------------------
      1          6           0       -2.500602   -1.379837    0.001434
      2          6           0       -3.705272   -0.650706   -0.019759
      3          6           0       -3.679703    0.745941    0.035218
      4          6           0       -2.455266    1.399853   -0.013407
      5          6           0        2.471327    1.419727   -0.012043
      6          6           0        3.687841    0.679989    0.032670
      7          6           0        3.697608   -0.692886   -0.021164
      8          6           0        2.485081   -1.344317    0.003554
      9          6           0       -0.008296   -1.458035    0.061965
     10          6           0        0.008156    1.432706   -0.039658
     11          6           0       -1.266033   -0.686539   -0.001251
     12          6           0       -1.233378    0.727502   -0.017522
     13          6           0        1.258309   -0.668958   -0.000197
     14          6           0        1.241718    0.737372   -0.016842
     15          1           0       -2.502314   -2.485965   -0.047616
     16          1           0       -4.643833   -1.217531   -0.107093
     17          1           0       -4.602113    1.270523    0.116367
     18          1           0       -2.453669    2.433364    0.032160
     19          1           0        0.014319    2.512739    0.008141
     20          1           0        2.482072    2.549078    0.038122
     21          1           0        4.616610    1.265941    0.116916
     22          1           0        4.630027   -1.198455   -0.105404
     23          1           0        2.474443   -2.402449   -0.043195
     24          1           0       -0.004170   -2.107917   -0.841808
     25          1           0       -0.020313   -2.190191    0.875421
 ---------------------------------------------------------------------

 SCF Done:  E(RM062X) =  -539.748633839     A.U. after   15 cycles

 Excitation energies and oscillator strengths:

 Excited State   1:      Singlet-A      2.8038 eV  442.21 nm  f=0.0285  <S**2>=0.000
      47 -> 48         0.70420
 This state for optimization and/or second-order correction.
 Total Energy, E(TD-HF/TD-DFT) =  -539.645597142
 Copying the excited state density for this state as the 1-particle RhoCI density.

 The electronic state is 1-A.
 Alpha  occ. eigenvalues --  -10.77656 -10.73434 -10.73176 -10.72532 -10.72432
 Alpha  occ. eigenvalues --  -10.72077 -10.71484 -10.71047 -10.70694 -10.70580
 Alpha  occ. eigenvalues --  -10.70466 -10.69817 -10.69539 -10.69506  -1.16359
 Alpha  occ. eigenvalues --   -1.12428  -1.06930  -1.05704  -1.01259  -1.00139
 Alpha  occ. eigenvalues --   -0.95721  -0.91048  -0.86419  -0.85786  -0.83830
 Alpha  occ. eigenvalues --   -0.78352  -0.75966  -0.74404  -0.69710  -0.69325
 Alpha  occ. eigenvalues --   -0.68363  -0.68107  -0.68023  -0.64720  -0.64226
 Alpha  occ. eigenvalues --   -0.63068  -0.61870  -0.60066  -0.59677  -0.58810
 Alpha  occ. eigenvalues --   -0.56863  -0.55262  -0.54654  -0.52326  -0.46598
 Alpha  occ. eigenvalues --   -0.45956  -0.44433
 Alpha virt. eigenvalues --   -0.26090  -0.14698  -0.14167  -0.12819  -0.11188
 Alpha virt. eigenvalues --   -0.10099  -0.09227  -0.08114  -0.07926  -0.07482
 Alpha virt. eigenvalues --   -0.07217  -0.07154  -0.05652  -0.05606  -0.05355

 Mulliken charges:
               1
     1  C    0.077323
     2  C   -0.371700
     3  C   -0.436806
     4  C   -0.016904
     5  C    0.063922
     6  C   -0.449548
     7  C   -0.386651
     8  C    0.082818
     9  C   -0.405858
    10  C    0.090747
    11  C   -0.618999
    12  C    0.741468
    13  C   -0.657259
    14  C    0.683922
    15  H    0.242981
    16  H    0.260330
    17  H    0.248010
    18  H    0.197836
    19  H    0.183671
    20  H    0.238458
    21  H    0.250266
    22  H    0.252021
    23  H    0.224626
    24  H    0.249205
    25  H    0.256118
 Sum of Mulliken charges =   1.00000

 Dipole moment (field-independent basis, Debye):
    X=             -0.0466    Y=              0.1833    Z=             -0.0125  Tot=              0.1896
 Quadrupole moment (field-independent basis, Debye-Ang):
   XX=            -31.1722   YY=            -56.2197   ZZ=            -84.1331
   XY=              0.3598   XZ=              0.0029   YZ=              0.7209

 Normal termination of Gaussian 16 at Wed Jul 27 12:18:03 2022.
