 Gaussian 16, Revision C.01,
 Gaussian 16:  ES64L-G16RevC.01  3-Jul-2019

 ---------------------------------------------------------------
 #n M062X/6-311++G(d,p) TD(NStates=1) EmpiricalDispersion=GD3 SP
 ---------------------------------------------------------------

 -----
 SP_-4
 -----
 Symbolic Z-matrix:
 Charge =  1 Multiplicity = 1

                         Standard orientation:
 ---------------------------------------------------------------------
 Center     Atomic      Atomic             Coordinates (Angstroms)
 Number     Number       Type             X           Y           Z
 ---------------------------------------------------------------------
      1          6           0        2.484768   -1.360401    0.008365
      2          6           0        3.697449   -0.710787   -0.022299
      3          6           0        3.687858    0.671482    0.023351
      4          6           0        2.471702    1.439977   -0.014750
      5          6           0       -2.454915    1.420110   -0.009975
      6          6           0       -3.679733    0.737065    0.043102
      7          6           0       -3.705445   -0.668212   -0.019733
      8          6           0       -2.500907   -1.395144   -0.003709
      9          6           0       -0.008693   -1.465713    0.062220
     10          6           0        0.008628    1.461938   -0.038878
     11          6           0        1.258232   -0.660403    0.014040
     12          6           0        1.241921    0.746492   -0.015240
     13          6           0       -1.266059   -0.676546   -0.014029
     14          6           0       -1.233175    0.736912   -0.018867
     15          1           0        2.474121   -2.407564   -0.037419
     16          1           0        4.629953   -1.216585   -0.103455
     17          1           0        4.616566    1.264653    0.123562
     18          1           0        2.482460    2.558361    0.034419
     19          1           0        0.014842    2.537995    0.008270
     20          1           0       -2.453310    2.442654    0.034620
     21          1           0       -4.602146    1.270480    0.108572
     22          1           0       -4.643917   -1.234883   -0.109695
     23          1           0       -2.502631   -2.490307   -0.051755
     24          1           0       -0.006659   -2.233563    0.874291
     25          1           0       -0.019069   -2.151857   -0.842996
 ---------------------------------------------------------------------

 SCF Done:  E(RM062X) =  -539.742507299     A.U. after   15 cycles

 Excitation energies and oscillator strengths:

 Excited State   1:      Singlet-A      2.7172 eV  456.29 nm  f=0.0285  <S**2>=0.000
      47 -> 48         0.70435
 This state for optimization and/or second-order correction.
 Total Energy, E(TD-HF/TD-DFT) =  -539.642651069
 Copying the excited state density for this state as the 1-particle RhoCI density.

 The electronic state is 1-A.
 Alpha  occ. eigenvalues --  -10.77927 -10.73682 -10.73414 -10.72727 -10.72643
 Alpha  occ. eigenvalues --  -10.72144 -10.71580 -10.71492 -10.70742 -10.70618
 Alpha  occ. eigenvalues --  -10.70542 -10.70048 -10.69746 -10.69586  -1.15975
 Alpha  occ. eigenvalues --   -1.12028  -1.06621  -1.05264  -1.01220  -0.99677
 Alpha  occ. eigenvalues --   -0.95554  -0.90626  -0.86523  -0.85513  -0.83929
 Alpha  occ. eigenvalues --   -0.78128  -0.75587  -0.74443  -0.69652  -0.69447
 Alpha  occ. eigenvalues --   -0.68259  -0.68158  -0.67228  -0.64891  -0.64586
 Alpha  occ. eigenvalues --   -0.62401  -0.61895  -0.59593  -0.59359  -0.58482
 Alpha  occ. eigenvalues --   -0.57200  -0.55803  -0.54154  -0.52123  -0.46449
 Alpha  occ. eigenvalues --   -0.45773  -0.44156
 Alpha virt. eigenvalues --   -0.26172  -0.15010  -0.14133  -0.13046  -0.11194
 Alpha virt. eigenvalues --   -0.10157  -0.09201  -0.08144  -0.07917  -0.07495
 Alpha virt. eigenvalues --   -0.07266  -0.07161  -0.05662  -0.05630  -0.05409

 Mulliken charges:
               1
     1  C    0.067206
     2  C   -0.393449
     3  C   -0.442516
     4  C    0.022095
     5  C   -0.057875
     6  C   -0.437824
     7  C   -0.357865
     8  C    0.074880
     9  C   -0.439377
    10  C    0.085316
    11  C   -0.574658
    12  C    0.648285
    13  C   -0.596015
    14  C    0.789239
    15  H    0.224931
    16  H    0.252065
    17  H    0.250236
    18  H    0.235288
    19  H    0.190114
    20  H    0.193343
    21  H    0.249959
    22  H    0.260935
    23  H    0.240242
    24  H    0.262340
    25  H    0.253106
 Sum of Mulliken charges =   1.00000

 Dipole moment (field-independent basis, Debye):
    X=             -0.0415    Y=              0.1510    Z=             -0.0126  Tot=              0.1571
 Quadrupole moment (field-independent basis, Debye-Ang):
   XX=            -31.9283   YY=            -55.3176   ZZ=            -84.4570
   XY=              0.3623   XZ=              0.1561   YZ=              0.7188

 Normal termination of Gaussian 16 at Wed Jul 27 09:38:44 2022.
