 Gaussian 16, Revision C.01,
 Gaussian 16:  ES64L-G16RevC.01  3-Jul-2019

 ---------------------------------------------------------------
 #n M062X/6-311++G(d,p) TD(NStates=1) EmpiricalDispersion=GD3 SP
 ---------------------------------------------------------------

 -----
 SP_-3
 -----
 Symbolic Z-matrix:
 Charge =  1 Multiplicity = 1

                         Standard orientation:
 ---------------------------------------------------------------------
 Center     Atomic      Atomic             Coordinates (Angstroms)
 Number     Number       Type             X           Y           Z
 ---------------------------------------------------------------------
      1          6           0        2.486472   -1.380017    0.012354
      2          6           0        3.698373   -0.723441   -0.017513
      3          6           0        3.686968    0.671438    0.006673
      4          6           0        2.469873    1.456803   -0.014636
      5          6           0       -2.456727    1.441916   -0.003421
      6          6           0       -3.680884    0.720399    0.042114
      7          6           0       -3.704625   -0.691180   -0.014826
      8          6           0       -2.499048   -1.405501   -0.009068
      9          6           0       -0.006822   -1.471404    0.046895
     10          6           0        0.006832    1.489676   -0.028617
     11          6           0        1.259065   -0.653347    0.027955
     12          6           0        1.240960    0.753745   -0.009495
     13          6           0       -1.265013   -0.664395   -0.026853
     14          6           0       -1.234091    0.746778   -0.015927
     15          1           0        2.477303   -2.422642   -0.021493
     16          1           0        4.631594   -1.238518   -0.074884
     17          1           0        4.614691    1.266014    0.101529
     18          1           0        2.478975    2.552696    0.021092
     19          1           0        0.011532    2.562203    0.006268
     20          1           0       -2.456540    2.465893    0.029731
     21          1           0       -4.603933    1.271332    0.071775
     22          1           0       -4.642190   -1.251645   -0.085503
     23          1           0       -2.499174   -2.484145   -0.044150
     24          1           0       -0.007660   -2.265360    0.869996
     25          1           0       -0.012588   -2.204645   -0.848166
 ---------------------------------------------------------------------

 SCF Done:  E(RM062X) =  -539.735678627     A.U. after   16 cycles

 Excitation energies and oscillator strengths:

 Excited State   1:      Singlet-A      2.6346 eV  470.61 nm  f=0.0284  <S**2>=0.000
      47 -> 48         0.70452
 This state for optimization and/or second-order correction.
 Total Energy, E(TD-HF/TD-DFT) =  -539.638860127
 Copying the excited state density for this state as the 1-particle RhoCI density.

 The electronic state is 1-A.
 Alpha  occ. eigenvalues --  -10.78203 -10.73863 -10.73672 -10.72898 -10.72851
 Alpha  occ. eigenvalues --  -10.72091 -10.72034 -10.71386 -10.70967 -10.70754
 Alpha  occ. eigenvalues --  -10.70497 -10.70229 -10.69985 -10.69784  -1.15632
 Alpha  occ. eigenvalues --   -1.11650  -1.06360  -1.04807  -1.01214  -0.99230
 Alpha  occ. eigenvalues --   -0.95421  -0.90209  -0.86624  -0.85295  -0.84023
 Alpha  occ. eigenvalues --   -0.77941  -0.75220  -0.74479  -0.69892  -0.69442
 Alpha  occ. eigenvalues --   -0.68298  -0.68011  -0.66496  -0.65138  -0.64824
 Alpha  occ. eigenvalues --   -0.61989  -0.61616  -0.59114  -0.58980  -0.58265
 Alpha  occ. eigenvalues --   -0.57533  -0.56306  -0.53696  -0.51970  -0.46391
 Alpha  occ. eigenvalues --   -0.45558  -0.43900
 Alpha virt. eigenvalues --   -0.26260  -0.15305  -0.14096  -0.13248  -0.11200
 Alpha virt. eigenvalues --   -0.10215  -0.09182  -0.08194  -0.07888  -0.07509
 Alpha virt. eigenvalues --   -0.07295  -0.07182  -0.05674  -0.05648  -0.05458

 Mulliken charges:
               1
     1  C   -0.114522
     2  C   -0.345190
     3  C   -0.386110
     4  C   -0.160294
     5  C   -0.131421
     6  C   -0.427007
     7  C   -0.237692
     8  C   -0.314697
     9  C   -0.525543
    10  C   -0.102921
    11  C   -0.292497
    12  C    0.772120
    13  C   -0.080595
    14  C    0.726854
    15  H    0.226013
    16  H    0.254089
    17  H    0.249134
    18  H    0.226699
    19  H    0.200416
    20  H    0.195535
    21  H    0.250386
    22  H    0.262661
    23  H    0.228720
    24  H    0.268241
    25  H    0.257623
 Sum of Mulliken charges =   1.00000

 Dipole moment (field-independent basis, Debye):
    X=             -0.0264    Y=              0.1212    Z=             -0.0100  Tot=              0.1244
 Quadrupole moment (field-independent basis, Debye-Ang):
   XX=            -32.6440   YY=            -54.4340   ZZ=            -84.7865
   XY=              0.2739   XZ=              0.2797   YZ=              0.5388

 Normal termination of Gaussian 16 at Wed Jul 27 09:57:34 2022.
