 Gaussian 16, Revision C.01,
 Gaussian 16:  ES64L-G16RevC.01  3-Jul-2019

 ---------------------------------------------------------------
 #n M062X/6-311++G(d,p) TD(NStates=1) EmpiricalDispersion=GD3 SP
 ---------------------------------------------------------------

 ----
 SP_4
 ----
 Symbolic Z-matrix:
 Charge =  1 Multiplicity = 1

                         Standard orientation:
 ---------------------------------------------------------------------
 Center     Atomic      Atomic             Coordinates (Angstroms)
 Number     Number       Type             X           Y           Z
 ---------------------------------------------------------------------
      1          6           0       -2.499308   -1.318637    0.022555
      2          6           0       -3.704777   -0.580654   -0.019061
      3          6           0       -3.680082    0.781544    0.004430
      4          6           0       -2.456864    1.318871   -0.026844
      5          6           0        2.470082    1.338687   -0.001801
      6          6           0        3.688273    0.713908    0.069372
      7          6           0        3.698387   -0.621319   -0.017142
      8          6           0        2.486204   -1.279961   -0.016021
      9          6           0       -0.006717   -1.427322    0.060983
     10          6           0        0.006303    1.315788   -0.043002
     11          6           0       -1.265421   -0.726614    0.049986
     12          6           0       -1.234166    0.689858   -0.011989
     13          6           0        1.258119   -0.703064   -0.057455
     14          6           0        1.240911    0.700898   -0.023536
     15          1           0       -2.500976   -2.468624   -0.030619
     16          1           0       -4.643638   -1.148118   -0.095727
     17          1           0       -4.601844    1.270655    0.148386
     18          1           0       -2.455294    2.396247    0.022720
     19          1           0        0.012275    2.411718    0.007450
     20          1           0        2.480777    2.511899    0.052455
     21          1           0        4.616707    1.271121    0.089542
     22          1           0        4.630367   -1.125948   -0.113891
     23          1           0        2.475598   -2.381961   -0.066737
     24          1           0       -0.008790   -1.931786   -0.836795
     25          1           0       -0.010841   -2.017099    0.880360
 ---------------------------------------------------------------------

 SCF Done:  E(RM062X) =  -539.707195575     A.U. after   15 cycles

 Excitation energies and oscillator strengths:

 Excited State   1:      Singlet-A      3.1028 eV  399.59 nm  f=0.0273  <S**2>=0.000
      47 -> 48         0.70283
 This state for optimization and/or second-order correction.
 Total Energy, E(TD-HF/TD-DFT) =  -539.593170739
 Copying the excited state density for this state as the 1-particle RhoCI density.

 The electronic state is 1-A.
 Alpha  occ. eigenvalues --  -10.76603 -10.72542 -10.72286 -10.71924 -10.71836
 Alpha  occ. eigenvalues --  -10.71659 -10.71521 -10.70620 -10.70503 -10.70213
 Alpha  occ. eigenvalues --  -10.69262 -10.69050 -10.69032 -10.68851  -1.17980
 Alpha  occ. eigenvalues --   -1.14132  -1.08792  -1.07005  -1.02297  -1.01159
 Alpha  occ. eigenvalues --   -0.96492  -0.92714  -0.86917  -0.85891  -0.83689
 Alpha  occ. eigenvalues --   -0.79369  -0.77299  -0.74244  -0.71948  -0.71469
 Alpha  occ. eigenvalues --   -0.69282  -0.68434  -0.66884  -0.66273  -0.63065
 Alpha  occ. eigenvalues --   -0.62296  -0.61865  -0.61493  -0.60806  -0.59708
 Alpha  occ. eigenvalues --   -0.56768  -0.55257  -0.53161  -0.52647  -0.47804
 Alpha  occ. eigenvalues --   -0.46112  -0.45460
 Alpha virt. eigenvalues --   -0.25848  -0.14447  -0.13441  -0.12054  -0.11181
 Alpha virt. eigenvalues --   -0.09899  -0.09366  -0.08295  -0.08004  -0.07439
 Alpha virt. eigenvalues --   -0.07166  -0.06901  -0.05648  -0.05532  -0.05182

 Mulliken charges:
               1
     1  C    0.018529
     2  C   -0.428345
     3  C   -0.401113
     4  C    0.114548
     5  C    0.279299
     6  C   -0.451977
     7  C   -0.303299
     8  C   -0.016889
     9  C   -0.433778
    10  C    0.035643
    11  C   -0.657680
    12  C    0.448576
    13  C   -0.689335
    14  C    0.928310
    15  H    0.252342
    16  H    0.260050
    17  H    0.230214
    18  H    0.212314
    19  H    0.170312
    20  H    0.250577
    21  H    0.232966
    22  H    0.254088
    23  H    0.232024
    24  H    0.231436
    25  H    0.231188
 Sum of Mulliken charges =   1.00000

 Dipole moment (field-independent basis, Debye):
    X=             -0.0589    Y=              0.3196    Z=             -0.0087  Tot=              0.3251
 Quadrupole moment (field-independent basis, Debye-Ang):
   XX=            -28.0790   YY=            -59.8712   ZZ=            -82.8886
   XY=              0.3239   XZ=             -0.4621   YZ=              0.7245

 Normal termination of Gaussian 16 at Wed Jul 27 12:27:32 2022.
