 Gaussian 16, Revision C.01,
 Gaussian 16:  ES64L-G16RevC.01  3-Jul-2019

 ---------------------------------------------------------------
 #n M062X/6-311++G(d,p) TD(NStates=1) EmpiricalDispersion=GD3 SP
 ---------------------------------------------------------------

 -----
 SP_-2
 -----
 Symbolic Z-matrix:
 Charge =  1 Multiplicity = 1

                         Standard orientation:
 ---------------------------------------------------------------------
 Center     Atomic      Atomic             Coordinates (Angstroms)
 Number     Number       Type             X           Y           Z
 ---------------------------------------------------------------------
      1          6           0        2.489007   -1.336029   -0.003525
      2          6           0        3.699661   -0.664693   -0.009763
      3          6           0        3.685931    0.705701    0.025419
      4          6           0        2.467065    1.392840   -0.003481
      5          6           0       -2.459405    1.382879   -0.009659
      6          6           0       -3.681856    0.738877    0.009268
      7          6           0       -3.703327   -0.643803   -0.010135
      8          6           0       -2.496453   -1.354212    0.006223
      9          6           0       -0.003942   -1.446865    0.030898
     10          6           0        0.003837    1.400794   -0.020261
     11          6           0        1.260190   -0.681712   -0.014193
     12          6           0        1.239493    0.724465   -0.010140
     13          6           0       -1.263995   -0.691249    0.012741
     14          6           0       -1.235530    0.719371   -0.007206
     15          1           0        2.481360   -2.417944   -0.027683
     16          1           0        4.633421   -1.188079   -0.055342
     17          1           0        4.612957    1.271231    0.051211
     18          1           0        2.474512    2.510045    0.021532
     19          1           0        0.006893    2.485621    0.003977
     20          1           0       -2.460693    2.452122    0.014211
     21          1           0       -4.605663    1.272866    0.066087
     22          1           0       -4.640253   -1.198046   -0.050637
     23          1           0       -2.494968   -2.460145   -0.018535
     24          1           0       -0.000049   -2.123726    0.868366
     25          1           0       -0.011561   -2.082124   -0.850311
 ---------------------------------------------------------------------

 SCF Done:  E(RM062X) =  -539.756679040     A.U. after   15 cycles

 Excitation energies and oscillator strengths:

 Excited State   1:      Singlet-A      2.9011 eV  427.37 nm  f=0.0285  <S**2>=0.000
      47 -> 48         0.70408
 This state for optimization and/or second-order correction.
 Total Energy, E(TD-HF/TD-DFT) =  -539.650065686
 Copying the excited state density for this state as the 1-particle RhoCI density.

 The electronic state is 1-A.
 Alpha  occ. eigenvalues --  -10.77396 -10.73088 -10.72951 -10.72282 -10.72221
 Alpha  occ. eigenvalues --  -10.71667 -10.71229 -10.70984 -10.70762 -10.70473
 Alpha  occ. eigenvalues --  -10.70143 -10.69661 -10.69500 -10.69370  -1.16813
 Alpha  occ. eigenvalues --   -1.12868  -1.07314  -1.06117  -1.01360  -1.00619
 Alpha  occ. eigenvalues --   -0.95941  -0.91479  -0.86314  -0.86144  -0.83741
 Alpha  occ. eigenvalues --   -0.78627  -0.76378  -0.74368  -0.69942  -0.69218
 Alpha  occ. eigenvalues --   -0.68970  -0.68249  -0.68144  -0.64622  -0.63856
 Alpha  occ. eigenvalues --   -0.63616  -0.61801  -0.60518  -0.59986  -0.59290
 Alpha  occ. eigenvalues --   -0.56544  -0.55305  -0.54614  -0.52618  -0.46863
 Alpha  occ. eigenvalues --   -0.46124  -0.44758
 Alpha virt. eigenvalues --   -0.26016  -0.14360  -0.14167  -0.12564  -0.11180
 Alpha virt. eigenvalues --   -0.10034  -0.09259  -0.08067  -0.07930  -0.07466
 Alpha virt. eigenvalues --   -0.07192  -0.07092  -0.05640  -0.05565  -0.05288

 Mulliken charges:
               1
     1  C    0.092324
     2  C   -0.398471
     3  C   -0.448680
     4  C    0.082673
     5  C    0.038397
     6  C   -0.435140
     7  C   -0.414651
     8  C    0.080685
     9  C   -0.311850
    10  C    0.097432
    11  C   -0.678819
    12  C    0.722985
    13  C   -0.700162
    14  C    0.670256
    15  H    0.233533
    16  H    0.254044
    17  H    0.246629
    18  H    0.235646
    19  H    0.183345
    20  H    0.215460
    21  H    0.244642
    22  H    0.258249
    23  H    0.242490
    24  H    0.245221
    25  H    0.243764
 Sum of Mulliken charges =   1.00000

 Dipole moment (field-independent basis, Debye):
    X=             -0.0249    Y=              0.2196    Z=             -0.0065  Tot=              0.2211
 Quadrupole moment (field-independent basis, Debye-Ang):
   XX=            -30.3652   YY=            -57.1572   ZZ=            -83.8202
   XY=              0.1759   XZ=             -0.1137   YZ=              0.3621

 Normal termination of Gaussian 16 at Wed Jul 27 10:25:05 2022.
