 Gaussian 16, Revision C.01,
 Gaussian 16:  ES64L-G16RevC.01  3-Jul-2019

 ---------------------------------------------------------------
 #n M062X/6-311++G(d,p) TD(NStates=1) EmpiricalDispersion=GD3 SP
 ---------------------------------------------------------------

 ----
 SP_3
 ----
 Symbolic Z-matrix:
 Charge =  1 Multiplicity = 1

                         Standard orientation:
 ---------------------------------------------------------------------
 Center     Atomic      Atomic             Coordinates (Angstroms)
 Number     Number       Type             X           Y           Z
 ---------------------------------------------------------------------
      1          6           0       -2.498361   -1.359273    0.006501
      2          6           0       -3.704226   -0.638513   -0.014962
      3          6           0       -3.680798    0.746906    0.018264
      4          6           0       -2.457517    1.381095   -0.013197
      5          6           0        2.469014    1.396021   -0.006489
      6          6           0        3.686910    0.697144    0.033757
      7          6           0        3.698725   -0.669854   -0.014882
      8          6           0        2.487187   -1.332020   -0.002472
      9          6           0       -0.005918   -1.448320    0.046321
     10          6           0        0.005760    1.401912   -0.030372
     11          6           0       -1.264971   -0.693853    0.012178
     12          6           0       -1.234553    0.718625   -0.011667
     13          6           0        1.259259   -0.679559   -0.014362
     14          6           0        1.240500    0.726256   -0.014334
     15          1           0       -2.498460   -2.470860   -0.030842
     16          1           0       -4.642001   -1.199353   -0.077473
     17          1           0       -4.603861    1.271971    0.095203
     18          1           0       -2.457349    2.438017    0.022162
     19          1           0        0.010344    2.486397    0.005978
     20          1           0        2.478086    2.524859    0.031462
     21          1           0        4.614799    1.269498    0.080695
     22          1           0        4.631754   -1.184430   -0.081453
     23          1           0        2.478041   -2.407592   -0.038489
     24          1           0       -0.004430   -2.072802   -0.845522
     25          1           0       -0.012997   -2.135110    0.872570
 ---------------------------------------------------------------------

 SCF Done:  E(RM062X) =  -539.753166720     A.U. after   15 cycles

 Excitation energies and oscillator strengths:

 Excited State   1:      Singlet-A      2.8947 eV  428.32 nm  f=0.0285  <S**2>=0.000
      47 -> 48         0.70405
 This state for optimization and/or second-order correction.
 Total Energy, E(TD-HF/TD-DFT) =  -539.646789324
 Copying the excited state density for this state as the 1-particle RhoCI density.

 The electronic state is 1-A.
 Alpha  occ. eigenvalues --  -10.77392 -10.73139 -10.72941 -10.72311 -10.72222
 Alpha  occ. eigenvalues --  -10.71842 -10.71354 -10.70819 -10.70653 -10.70494
 Alpha  occ. eigenvalues --  -10.70268 -10.69549 -10.69544 -10.69354  -1.16787
 Alpha  occ. eigenvalues --   -1.12855  -1.07308  -1.06110  -1.01344  -1.00604
 Alpha  occ. eigenvalues --   -0.95922  -0.91476  -0.86320  -0.86102  -0.83744
 Alpha  occ. eigenvalues --   -0.78612  -0.76359  -0.74364  -0.69991  -0.69207
 Alpha  occ. eigenvalues --   -0.68963  -0.68235  -0.68102  -0.64616  -0.63889
 Alpha  occ. eigenvalues --   -0.63567  -0.61809  -0.60521  -0.59987  -0.59207
 Alpha  occ. eigenvalues --   -0.56533  -0.55262  -0.54615  -0.52582  -0.46852
 Alpha  occ. eigenvalues --   -0.46094  -0.44735
 Alpha virt. eigenvalues --   -0.26016  -0.14370  -0.14189  -0.12579  -0.11182
 Alpha virt. eigenvalues --   -0.10038  -0.09258  -0.08096  -0.07927  -0.07468
 Alpha virt. eigenvalues --   -0.07189  -0.07104  -0.05643  -0.05573  -0.05295

 Mulliken charges:
               1
     1  C    0.075664
     2  C   -0.403425
     3  C   -0.433160
     4  C    0.033680
     5  C    0.099904
     6  C   -0.452573
     7  C   -0.385606
     8  C    0.090097
     9  C   -0.337907
    10  C    0.095180
    11  C   -0.680435
    12  C    0.669832
    13  C   -0.693466
    14  C    0.723686
    15  H    0.243895
    16  H    0.259161
    17  H    0.244559
    18  H    0.209127
    19  H    0.181122
    20  H    0.239146
    21  H    0.247400
    22  H    0.253104
    23  H    0.229400
    24  H    0.244322
    25  H    0.247292
 Sum of Mulliken charges =   1.00000

 Dipole moment (field-independent basis, Debye):
    X=             -0.0376    Y=              0.2181    Z=             -0.0094  Tot=              0.2216
 Quadrupole moment (field-independent basis, Debye-Ang):
   XX=            -30.3818   YY=            -57.1438   ZZ=            -83.8176
   XY=              0.2648   XZ=             -0.1246   YZ=              0.5425

 Normal termination of Gaussian 16 at Wed Jul 27 11:59:49 2022.
