 Gaussian 16, Revision C.01,
 Gaussian 16:  ES64L-G16RevC.01  3-Jul-2019

 ---------------------------------------------------------------
 #n M062X/6-311++G(d,p) TD(NStates=1) EmpiricalDispersion=GD3 SP
 ---------------------------------------------------------------

 ----
 SP_2
 ----
 Symbolic Z-matrix:
 Charge =  1 Multiplicity = 1

                         Standard orientation:
 ---------------------------------------------------------------------
 Center     Atomic      Atomic             Coordinates (Angstroms)
 Number     Number       Type             X           Y           Z
 ---------------------------------------------------------------------
      1          6           0       -2.497169   -1.431776   -0.019709
      2          6           0       -3.703882   -0.731829   -0.009456
      3          6           0       -3.682244    0.694927    0.049685
      4          6           0       -2.458642    1.484308    0.005952
      5          6           0        2.468168    1.494178   -0.017352
      6          6           0        3.686290    0.662552   -0.018549
      7          6           0        3.699361   -0.753796   -0.013145
      8          6           0        2.488136   -1.415573    0.021633
      9          6           0       -0.004961   -1.485397    0.031542
     10          6           0        0.005050    1.547151   -0.018364
     11          6           0       -1.263750   -0.643056   -0.053373
     12          6           0       -1.235002    0.766144   -0.014585
     13          6           0        1.259678   -0.637087    0.055528
     14          6           0        1.240005    0.770487   -0.002148
     15          1           0       -2.495716   -2.482751   -0.041972
     16          1           0       -4.640528   -1.285631   -0.063956
     17          1           0       -4.605674    1.270949    0.027393
     18          1           0       -2.459904    2.498593    0.027369
     19          1           0        0.008238    2.612008    0.004258
     20          1           0        2.475648    2.556422    0.005245
     21          1           0        4.612777    1.266117    0.087031
     22          1           0        4.633285   -1.277716   -0.043580
     23          1           0        2.480461   -2.442526   -0.000150
     24          1           0        0.003659   -2.301594   -0.853100
     25          1           0       -0.018464   -2.341268    0.865519
 ---------------------------------------------------------------------

 SCF Done:  E(RM062X) =  -539.697693156     A.U. after   16 cycles

 Excitation energies and oscillator strengths:

 Excited State   1:      Singlet-A      2.4503 eV  505.99 nm  f=0.0279  <S**2>=0.000
      47 -> 48         0.70477
 This state for optimization and/or second-order correction.
 Total Energy, E(TD-HF/TD-DFT) =  -539.607645028
 Copying the excited state density for this state as the 1-particle RhoCI density.

 The electronic state is 1-A.
 Alpha  occ. eigenvalues --  -10.78750 -10.74309 -10.74200 -10.73303 -10.73296
 Alpha  occ. eigenvalues --  -10.73160 -10.72013 -10.71330 -10.71285 -10.70943
 Alpha  occ. eigenvalues --  -10.70678 -10.70544 -10.70494 -10.70079  -1.14917
 Alpha  occ. eigenvalues --   -1.10899  -1.05906  -1.03852  -1.01179  -0.98330
 Alpha  occ. eigenvalues --   -0.95145  -0.89399  -0.86812  -0.84962  -0.84090
 Alpha  occ. eigenvalues --   -0.77614  -0.74529  -0.74401  -0.70505  -0.69822
 Alpha  occ. eigenvalues --   -0.68500  -0.67391  -0.65637  -0.65181  -0.64784
 Alpha  occ. eigenvalues --   -0.61993  -0.60197  -0.58488  -0.58153  -0.57965
 Alpha  occ. eigenvalues --   -0.57642  -0.57061  -0.52666  -0.51610  -0.46361
 Alpha  occ. eigenvalues --   -0.44993  -0.43343
 Alpha virt. eigenvalues --   -0.26460  -0.15896  -0.14251  -0.13545  -0.11240
 Alpha virt. eigenvalues --   -0.10349  -0.09143  -0.08459  -0.07821  -0.07535
 Alpha virt. eigenvalues --   -0.07365  -0.07205  -0.05721  -0.05694  -0.05568

 Mulliken charges:
               1
     1  C   -0.287768
     2  C   -0.250353
     3  C   -0.367283
     4  C   -0.236480
     5  C   -0.265702
     6  C   -0.341431
     7  C   -0.339953
     8  C   -0.097739
     9  C   -0.613962
    10  C   -0.118948
    11  C   -0.067244
    12  C    0.914864
    13  C   -0.346688
    14  C    0.786571
    15  H    0.227362
    16  H    0.263003
    17  H    0.246542
    18  H    0.192281
    19  H    0.220822
    20  H    0.212901
    21  H    0.243512
    22  H    0.256400
    23  H    0.228930
    24  H    0.263892
    25  H    0.276474
 Sum of Mulliken charges =   1.00000

 Dipole moment (field-independent basis, Debye):
    X=             -0.0100    Y=              0.0579    Z=             -0.0069  Tot=              0.0592
 Quadrupole moment (field-independent basis, Debye-Ang):
   XX=            -34.0718   YY=            -52.6450   ZZ=            -85.4571
   XY=              0.1856   XZ=              0.5277   YZ=              0.3570

 Normal termination of Gaussian 16 at Wed Jul 27 11:27:50 2022.
