 Gaussian 16, Revision C.01,
 Gaussian 16:  ES64L-G16RevC.01  3-Jul-2019

 ---------------------------------------------------------------
 #n M062X/6-311++G(d,p) TD(NStates=1) EmpiricalDispersion=GD3 SP
 ---------------------------------------------------------------

 ----
 SP_1
 ----
 Symbolic Z-matrix:
 Charge =  1 Multiplicity = 1

                         Standard orientation:
 ---------------------------------------------------------------------
 Center     Atomic      Atomic             Coordinates (Angstroms)
 Number     Number       Type             X           Y           Z
 ---------------------------------------------------------------------
      1          6           0       -2.494883   -1.427430   -0.019996
      2          6           0       -3.702764   -0.737371   -0.003926
      3          6           0       -3.683281    0.686970    0.041685
      4          6           0       -2.461005    1.486383    0.008930
      5          6           0        2.465767    1.491320   -0.014635
      6          6           0        3.685304    0.670781   -0.026115
      7          6           0        3.700504   -0.748354   -0.007375
      8          6           0        2.490367   -1.419326    0.020962
      9          6           0       -0.002480   -1.484558    0.015776
     10          6           0        0.002524    1.546529   -0.009186
     11          6           0       -1.262719   -0.641420   -0.053824
     12          6           0       -1.236244    0.766933   -0.010341
     13          6           0        1.260684   -0.638434    0.054903
     14          6           0        1.238745    0.769106    0.001971
     15          1           0       -2.491848   -2.472578   -0.031041
     16          1           0       -4.638693   -1.284333   -0.036917
     17          1           0       -4.607439    1.270481   -0.001156
     18          1           0       -2.463768    2.512832    0.019761
     19          1           0        0.004118    2.611568    0.002126
     20          1           0        2.471639    2.541754   -0.003456
     21          1           0        4.610991    1.268067    0.058377
     22          1           0        4.635071   -1.280372   -0.016859
     23          1           0        2.484221   -2.452460    0.009980
     24          1           0        0.005345   -2.310944   -0.856390
     25          1           0       -0.012746   -2.330790    0.862605
 ---------------------------------------------------------------------

 SCF Done:  E(RM062X) =  -539.700173354     A.U. after   16 cycles

 Excitation energies and oscillator strengths:

 Excited State   1:      Singlet-A      2.4533 eV  505.38 nm  f=0.0279  <S**2>=0.000
      47 -> 48         0.70479
 This state for optimization and/or second-order correction.
 Total Energy, E(TD-HF/TD-DFT) =  -539.610016556
 Copying the excited state density for this state as the 1-particle RhoCI density.

 The electronic state is 1-A.
 Alpha  occ. eigenvalues --  -10.78751 -10.74270 -10.74216 -10.73293 -10.73289
 Alpha  occ. eigenvalues --  -10.73148 -10.71828 -10.71463 -10.71227 -10.71033
 Alpha  occ. eigenvalues --  -10.70625 -10.70533 -10.70425 -10.70192  -1.14931
 Alpha  occ. eigenvalues --   -1.10904  -1.05908  -1.03855  -1.01194  -0.98335
 Alpha  occ. eigenvalues --   -0.95158  -0.89399  -0.86812  -0.84973  -0.84095
 Alpha  occ. eigenvalues --   -0.77621  -0.74517  -0.74426  -0.70484  -0.69832
 Alpha  occ. eigenvalues --   -0.68510  -0.67396  -0.65630  -0.65193  -0.64818
 Alpha  occ. eigenvalues --   -0.61994  -0.60184  -0.58486  -0.58139  -0.57960
 Alpha  occ. eigenvalues --   -0.57681  -0.57087  -0.52691  -0.51630  -0.46370
 Alpha  occ. eigenvalues --   -0.45006  -0.43353
 Alpha virt. eigenvalues --   -0.26459  -0.15891  -0.14240  -0.13536  -0.11238
 Alpha virt. eigenvalues --   -0.10347  -0.09143  -0.08446  -0.07818  -0.07534
 Alpha virt. eigenvalues --   -0.07348  -0.07220  -0.05711  -0.05697  -0.05563

 Mulliken charges:
               1
     1  C   -0.235930
     2  C   -0.274205
     3  C   -0.357793
     4  C   -0.262915
     5  C   -0.274855
     6  C   -0.345981
     7  C   -0.322583
     8  C   -0.136296
     9  C   -0.577955
    10  C   -0.107214
    11  C   -0.148925
    12  C    0.900725
    13  C   -0.314971
    14  C    0.824615
    15  H    0.228881
    16  H    0.261393
    17  H    0.245857
    18  H    0.197480
    19  H    0.222705
    20  H    0.207716
    21  H    0.244344
    22  H    0.257952
    23  H    0.229938
    24  H    0.265878
    25  H    0.272141
 Sum of Mulliken charges =   1.00000

 Dipole moment (field-independent basis, Debye):
    X=             -0.0049    Y=              0.0586    Z=             -0.0036  Tot=              0.0589
 Quadrupole moment (field-independent basis, Debye-Ang):
   XX=            -34.0599   YY=            -52.6522   ZZ=            -85.4594
   XY=              0.0926   XZ=              0.5295   YZ=              0.1787

 Normal termination of Gaussian 16 at Wed Jul 27 11:06:26 2022.
