 Gaussian 16, Revision C.01,
 Gaussian 16:  ES64L-G16RevC.01  3-Jul-2019

 ---------------------------------------------------------------
 #n M062X/6-311++G(d,p) TD(NStates=1) EmpiricalDispersion=GD3 SP
 ---------------------------------------------------------------

 -----
 SP_-3
 -----
 Symbolic Z-matrix:
 Charge =  1 Multiplicity = 1

                         Standard orientation:
 ---------------------------------------------------------------------
 Center     Atomic      Atomic             Coordinates (Angstroms)
 Number     Number       Type             X           Y           Z
 ---------------------------------------------------------------------
      1          6           0        2.487599   -1.300016   -0.012451
      2          6           0        3.699035   -0.634148   -0.013280
      3          6           0        3.687122    0.714236    0.051638
      4          6           0        2.468568    1.355481   -0.001251
      5          6           0       -2.458141    1.340570   -0.019633
      6          6           0       -3.680990    0.764620    0.002602
      7          6           0       -3.704057   -0.603386   -0.014793
      8          6           0       -2.497863   -1.328461    0.017061
      9          6           0       -0.005323   -1.432931    0.045953
     10          6           0        0.005062    1.343405   -0.031627
     11          6           0        1.259137   -0.696993   -0.042675
     12          6           0        1.240195    0.707931   -0.017653
     13          6           0       -1.264689   -0.713530    0.038232
     14          6           0       -1.234848    0.699857   -0.008783
     15          1           0        2.478466   -2.397552   -0.049957
     16          1           0        4.631890   -1.148384   -0.086038
     17          1           0        4.614824    1.271825    0.066559
     18          1           0        2.477622    2.506281    0.038224
     19          1           0        0.009575    2.435861    0.005720
     20          1           0       -2.457985    2.419453    0.017238
     21          1           0       -4.603746    1.272391    0.111085
     22          1           0       -4.641937   -1.164481   -0.071811
     23          1           0       -2.497946   -2.462008   -0.021832
     24          1           0        0.003466   -2.048367    0.874350
     25          1           0       -0.019066   -1.984824   -0.843570
 ---------------------------------------------------------------------

 SCF Done:  E(RM062X) =  -539.732295893     A.U. after   15 cycles

 Excitation energies and oscillator strengths:

 Excited State   1:      Singlet-A      3.0467 eV  406.95 nm  f=0.0279  <S**2>=0.000
      47 -> 48         0.70360
 This state for optimization and/or second-order correction.
 Total Energy, E(TD-HF/TD-DFT) =  -539.620333208
 Copying the excited state density for this state as the 1-particle RhoCI density.

 The electronic state is 1-A.
 Alpha  occ. eigenvalues --  -10.76866 -10.72695 -10.72487 -10.71959 -10.71856
 Alpha  occ. eigenvalues --  -10.71751 -10.71366 -10.70776 -10.70622 -10.70141
 Alpha  occ. eigenvalues --  -10.69490 -10.69420 -10.69158 -10.69002  -1.17597
 Alpha  occ. eigenvalues --   -1.13708  -1.08254  -1.06746  -1.01854  -1.01122
 Alpha  occ. eigenvalues --   -0.96303  -0.92316  -0.86687  -0.86038  -0.83670
 Alpha  occ. eigenvalues --   -0.79125  -0.77025  -0.74273  -0.70991  -0.70849
 Alpha  occ. eigenvalues --   -0.69243  -0.68325  -0.67341  -0.65588  -0.63490
 Alpha  occ. eigenvalues --   -0.62737  -0.61746  -0.61340  -0.60572  -0.59665
 Alpha  occ. eigenvalues --   -0.56407  -0.55618  -0.53340  -0.52990  -0.47482
 Alpha  occ. eigenvalues --   -0.46146  -0.45257
 Alpha virt. eigenvalues --   -0.25896  -0.14330  -0.13736  -0.12189  -0.11182
 Alpha virt. eigenvalues --   -0.09938  -0.09327  -0.08204  -0.07960  -0.07446
 Alpha virt. eigenvalues --   -0.07175  -0.06958  -0.05640  -0.05535  -0.05208

 Mulliken charges:
               1
     1  C    0.026028
     2  C   -0.356041
     3  C   -0.449610
     4  C    0.202496
     5  C    0.107820
     6  C   -0.419158
     7  C   -0.433980
     8  C    0.033837
     9  C   -0.363507
    10  C    0.073704
    11  C   -0.675466
    12  C    0.862552
    13  C   -0.718076
    14  C    0.536212
    15  H    0.234669
    16  H    0.253888
    17  H    0.237111
    18  H    0.246753
    19  H    0.174618
    20  H    0.217236
    21  H    0.234324
    22  H    0.259278
    23  H    0.248298
    24  H    0.233174
    25  H    0.233842
 Sum of Mulliken charges =   1.00000

 Dipole moment (field-independent basis, Debye):
    X=             -0.0423    Y=              0.2861    Z=             -0.0078  Tot=              0.2894
 Quadrupole moment (field-independent basis, Debye-Ang):
   XX=            -28.8305   YY=            -58.9688   ZZ=            -83.1947
   XY=              0.2508   XZ=             -0.3387   YZ=              0.5437

 Normal termination of Gaussian 16 at Wed Jul 27 10:08:59 2022.
