 Gaussian 16, Revision C.01,
 Gaussian 16:  ES64L-G16RevC.01  3-Jul-2019

 ---------------------------------------------------------------
 #n M062X/6-311++G(d,p) TD(NStates=1) EmpiricalDispersion=GD3 SP
 ---------------------------------------------------------------

 -----
 SP_-4
 -----
 Symbolic Z-matrix:
 Charge =  1 Multiplicity = 1

                         Standard orientation:
 ---------------------------------------------------------------------
 Center     Atomic      Atomic             Coordinates (Angstroms)
 Number     Number       Type             X           Y           Z
 ---------------------------------------------------------------------
      1          6           0        2.485948   -1.296043   -0.011257
      2          6           0        3.698172   -0.639189   -0.018333
      3          6           0        3.688090    0.705460    0.060024
      4          6           0        2.470349    1.358964   -0.004444
      5          6           0       -2.456443    1.339099   -0.023351
      6          6           0       -3.679914    0.772613    0.012277
      7          6           0       -3.704870   -0.598186   -0.019095
      8          6           0       -2.499637   -1.333944    0.017366
      9          6           0       -0.007100   -1.435001    0.061219
     10          6           0        0.006752    1.345016   -0.042129
     11          6           0        1.258242   -0.694550   -0.043185
     12          6           0        1.241108    0.710021   -0.021906
     13          6           0       -1.265646   -0.716585    0.037246
     14          6           0       -1.233977    0.699264   -0.013306
     15          1           0        2.475336   -2.387077   -0.060966
     16          1           0        4.630272   -1.144052   -0.111997
     17          1           0        4.616698    1.269841    0.096181
     18          1           0        2.481054    2.521211    0.048774
     19          1           0        0.012769    2.436973    0.007654
     20          1           0       -2.454867    2.405509    0.025199
     21          1           0       -4.601928    1.270607    0.140584
     22          1           0       -4.643668   -1.165493   -0.098387
     23          1           0       -2.501314   -2.472966   -0.034764
     24          1           0        0.002847   -2.060454    0.878974
     25          1           0       -0.023654   -1.975732   -0.838007
 ---------------------------------------------------------------------

 SCF Done:  E(RM062X) =  -539.727864737     A.U. after   15 cycles

 Excitation energies and oscillator strengths:

 Excited State   1:      Singlet-A      3.0368 eV  408.27 nm  f=0.0279  <S**2>=0.000
      47 -> 48         0.70347
 This state for optimization and/or second-order correction.
 Total Energy, E(TD-HF/TD-DFT) =  -539.616264548
 Copying the excited state density for this state as the 1-particle RhoCI density.

 The electronic state is 1-A.
 Alpha  occ. eigenvalues --  -10.76860 -10.72761 -10.72480 -10.71999 -10.71952
 Alpha  occ. eigenvalues --  -10.71824 -10.71502 -10.70620 -10.70509 -10.70267
 Alpha  occ. eigenvalues --  -10.69523 -10.69307 -10.69205 -10.68999  -1.17559
 Alpha  occ. eigenvalues --   -1.13688  -1.08240  -1.06742  -1.01829  -1.01103
 Alpha  occ. eigenvalues --   -0.96280  -0.92308  -0.86651  -0.86022  -0.83669
 Alpha  occ. eigenvalues --   -0.79103  -0.76996  -0.74270  -0.71026  -0.70828
 Alpha  occ. eigenvalues --   -0.69211  -0.68311  -0.67343  -0.65578  -0.63502
 Alpha  occ. eigenvalues --   -0.62705  -0.61795  -0.61291  -0.60579  -0.59564
 Alpha  occ. eigenvalues --   -0.56336  -0.55598  -0.53361  -0.52933  -0.47459
 Alpha  occ. eigenvalues --   -0.46112  -0.45220
 Alpha virt. eigenvalues --   -0.25895  -0.14359  -0.13751  -0.12210  -0.11184
 Alpha virt. eigenvalues --   -0.09945  -0.09326  -0.08234  -0.07959  -0.07449
 Alpha virt. eigenvalues --   -0.07171  -0.06980  -0.05644  -0.05547  -0.05217

 Mulliken charges:
               1
     1  C    0.026232
     2  C   -0.330625
     3  C   -0.454315
     4  C    0.221504
     5  C    0.101145
     6  C   -0.414254
     7  C   -0.420985
     8  C    0.031084
     9  C   -0.401958
    10  C    0.064119
    11  C   -0.684436
    12  C    0.867234
    13  C   -0.698011
    14  C    0.524645
    15  H    0.230344
    16  H    0.253411
    17  H    0.239064
    18  H    0.248171
    19  H    0.171705
    20  H    0.209900
    21  H    0.235356
    22  H    0.259809
    23  H    0.249631
    24  H    0.236114
    25  H    0.235116
 Sum of Mulliken charges =   1.00000

 Dipole moment (field-independent basis, Debye):
    X=             -0.0577    Y=              0.2833    Z=             -0.0098  Tot=              0.2893
 Quadrupole moment (field-independent basis, Debye-Ang):
   XX=            -28.8597   YY=            -58.9475   ZZ=            -83.1912
   XY=              0.3343   XZ=             -0.3262   YZ=              0.7232

 Normal termination of Gaussian 16 at Wed Jul 27 09:48:01 2022.
