 Gaussian 16, Revision C.01,
 Gaussian 16:  ES64L-G16RevC.01  3-Jul-2019

 ---------------------------------------------------------------
 #n M062X/6-311++G(d,p) TD(NStates=1) EmpiricalDispersion=GD3 SP
 ---------------------------------------------------------------

 -----
 SP_-3
 -----
 Symbolic Z-matrix:
 Charge =  1 Multiplicity = 1

                         Standard orientation:
 ---------------------------------------------------------------------
 Center     Atomic      Atomic             Coordinates (Angstroms)
 Number     Number       Type             X           Y           Z
 ---------------------------------------------------------------------
      1          6           0        2.486725   -1.364016    0.007376
      2          6           0        3.698476   -0.705571   -0.016687
      3          6           0        3.686899    0.680020    0.015654
      4          6           0        2.469559    1.436549   -0.011937
      5          6           0       -2.456973    1.421636   -0.006641
      6          6           0       -3.680805    0.729223    0.034198
      7          6           0       -3.704472   -0.673632   -0.014841
      8          6           0       -2.498826   -1.390093   -0.003859
      9          6           0       -0.006517   -1.463710    0.046700
     10          6           0        0.006469    1.460421   -0.029185
     11          6           0        1.259181   -0.662091    0.013842
     12          6           0        1.240805    0.744583   -0.011117
     13          6           0       -1.265049   -0.674208   -0.013822
     14          6           0       -1.234248    0.737392   -0.014488
     15          1           0        2.477564   -2.417624   -0.027187
     16          1           0        4.631641   -1.220481   -0.077135
     17          1           0        4.614737    1.267179    0.094531
     18          1           0        2.478650    2.543424    0.024524
     19          1           0        0.011129    2.536934    0.006184
     20          1           0       -2.456793    2.456595    0.027238
     21          1           0       -4.603921    1.271542    0.079634
     22          1           0       -4.642115   -1.234221   -0.082785
     23          1           0       -2.498942   -2.479718   -0.039686
     24          1           0       -0.005421   -2.221959    0.870824
     25          1           0       -0.013870   -2.160681   -0.847305
 ---------------------------------------------------------------------

 SCF Done:  E(RM062X) =  -539.747796481     A.U. after   15 cycles

 Excitation energies and oscillator strengths:

 Excited State   1:      Singlet-A      2.7251 eV  454.97 nm  f=0.0286  <S**2>=0.000
      47 -> 48         0.70438
 This state for optimization and/or second-order correction.
 Total Energy, E(TD-HF/TD-DFT) =  -539.647651696
 Copying the excited state density for this state as the 1-particle RhoCI density.

 The electronic state is 1-A.
 Alpha  occ. eigenvalues --  -10.77931 -10.73619 -10.73421 -10.72696 -10.72633
 Alpha  occ. eigenvalues --  -10.71962 -10.71551 -10.71370 -10.70908 -10.70714
 Alpha  occ. eigenvalues --  -10.70417 -10.69990 -10.69763 -10.69699  -1.16011
 Alpha  occ. eigenvalues --   -1.12043  -1.06627  -1.05275  -1.01246  -0.99695
 Alpha  occ. eigenvalues --   -0.95581  -0.90628  -0.86524  -0.85560  -0.83923
 Alpha  occ. eigenvalues --   -0.78148  -0.75611  -0.74450  -0.69618  -0.69389
 Alpha  occ. eigenvalues --   -0.68319  -0.68197  -0.67252  -0.64888  -0.64639
 Alpha  occ. eigenvalues --   -0.62380  -0.61906  -0.59558  -0.59363  -0.58606
 Alpha  occ. eigenvalues --   -0.57216  -0.55794  -0.54223  -0.52171  -0.46461
 Alpha  occ. eigenvalues --   -0.45816  -0.44184
 Alpha virt. eigenvalues --   -0.26171  -0.14998  -0.14102  -0.13027  -0.11189
 Alpha virt. eigenvalues --   -0.10152  -0.09202  -0.08102  -0.07919  -0.07492
 Alpha virt. eigenvalues --   -0.07247  -0.07171  -0.05657  -0.05620  -0.05400

 Mulliken charges:
               1
     1  C    0.071978
     2  C   -0.398052
     3  C   -0.444047
     4  C    0.017179
     5  C   -0.054184
     6  C   -0.434972
     7  C   -0.371491
     8  C    0.079211
     9  C   -0.415774
    10  C    0.089662
    11  C   -0.573340
    12  C    0.639253
    13  C   -0.586762
    14  C    0.762117
    15  H    0.228141
    16  H    0.253086
    17  H    0.250347
    18  H    0.231737
    19  H    0.192859
    20  H    0.199692
    21  H    0.250075
    22  H    0.260060
    23  H    0.239493
    24  H    0.259883
    25  H    0.253849
 Sum of Mulliken charges =   1.00000

 Dipole moment (field-independent basis, Debye):
    X=             -0.0309    Y=              0.1532    Z=             -0.0098  Tot=              0.1566
 Quadrupole moment (field-independent basis, Debye-Ang):
   XX=            -31.9020   YY=            -55.3359   ZZ=            -84.4614
   XY=              0.2714   XZ=              0.1467   YZ=              0.5400

 Normal termination of Gaussian 16 at Wed Jul 27 09:59:50 2022.
