 Gaussian 16, Revision C.01,
 Gaussian 16:  ES64L-G16RevC.01  3-Jul-2019

 ---------------------------------------------------------------
 #n M062X/6-311++G(d,p) TD(NStates=1) EmpiricalDispersion=GD3 SP
 ---------------------------------------------------------------

 -----
 SP_-3
 -----
 Symbolic Z-matrix:
 Charge =  1 Multiplicity = 1

                         Standard orientation:
 ---------------------------------------------------------------------
 Center     Atomic      Atomic             Coordinates (Angstroms)
 Number     Number       Type             X           Y           Z
 ---------------------------------------------------------------------
      1          6           0        2.487189   -1.332016   -0.002555
      2          6           0        3.698726   -0.669848   -0.015005
      3          6           0        3.686910    0.697150    0.033635
      4          6           0        2.469011    1.396025   -0.006570
      5          6           0       -2.457519    1.381091   -0.013114
      6          6           0       -3.680798    0.746901    0.018387
      7          6           0       -3.704225   -0.638519   -0.014839
      8          6           0       -2.498359   -1.359277    0.006584
      9          6           0       -0.005915   -1.448320    0.046320
     10          6           0        0.005757    1.401912   -0.030371
     11          6           0        1.259260   -0.679557   -0.014404
     12          6           0        1.240499    0.726258   -0.014375
     13          6           0       -1.264969   -0.693855    0.012219
     14          6           0       -1.234554    0.718623   -0.011625
     15          1           0        2.478043   -2.407588   -0.038573
     16          1           0        4.631753   -1.184422   -0.081607
     17          1           0        4.614800    1.269505    0.080542
     18          1           0        2.478083    2.524863    0.031382
     19          1           0        0.010341    2.486397    0.005979
     20          1           0       -2.457352    2.438013    0.022245
     21          1           0       -4.603859    1.271964    0.095356
     22          1           0       -4.642001   -1.199360   -0.077320
     23          1           0       -2.498457   -2.470863   -0.030760
     24          1           0       -0.000964   -2.135160    0.872543
     25          1           0       -0.016454   -2.072752   -0.845496
 ---------------------------------------------------------------------

 SCF Done:  E(RM062X) =  -539.753208915     A.U. after   15 cycles

 Excitation energies and oscillator strengths:

 Excited State   1:      Singlet-A      2.8949 eV  428.29 nm  f=0.0285  <S**2>=0.000
      47 -> 48         0.70405
 This state for optimization and/or second-order correction.
 Total Energy, E(TD-HF/TD-DFT) =  -539.646824645
 Copying the excited state density for this state as the 1-particle RhoCI density.

 The electronic state is 1-A.
 Alpha  occ. eigenvalues --  -10.77392 -10.73144 -10.72936 -10.72312 -10.72221
 Alpha  occ. eigenvalues --  -10.71842 -10.71354 -10.70819 -10.70653 -10.70495
 Alpha  occ. eigenvalues --  -10.70268 -10.69548 -10.69544 -10.69354  -1.16787
 Alpha  occ. eigenvalues --   -1.12855  -1.07308  -1.06110  -1.01344  -1.00603
 Alpha  occ. eigenvalues --   -0.95922  -0.91476  -0.86320  -0.86102  -0.83744
 Alpha  occ. eigenvalues --   -0.78612  -0.76358  -0.74364  -0.69990  -0.69208
 Alpha  occ. eigenvalues --   -0.68962  -0.68241  -0.68098  -0.64616  -0.63889
 Alpha  occ. eigenvalues --   -0.63564  -0.61808  -0.60529  -0.59988  -0.59205
 Alpha  occ. eigenvalues --   -0.56533  -0.55262  -0.54615  -0.52582  -0.46852
 Alpha  occ. eigenvalues --   -0.46094  -0.44735
 Alpha virt. eigenvalues --   -0.26016  -0.14369  -0.14189  -0.12579  -0.11182
 Alpha virt. eigenvalues --   -0.10038  -0.09258  -0.08096  -0.07927  -0.07468
 Alpha virt. eigenvalues --   -0.07189  -0.07104  -0.05643  -0.05573  -0.05295

 Mulliken charges:
               1
     1  C    0.088799
     2  C   -0.384707
     3  C   -0.451642
     4  C    0.098815
     5  C    0.033824
     6  C   -0.433708
     7  C   -0.405065
     8  C    0.073776
     9  C   -0.342663
    10  C    0.095092
    11  C   -0.675212
    12  C    0.733365
    13  C   -0.695505
    14  C    0.666428
    15  H    0.230056
    16  H    0.253116
    17  H    0.247392
    18  H    0.239103
    19  H    0.181150
    20  H    0.209110
    21  H    0.244567
    22  H    0.259142
    23  H    0.243685
    24  H    0.246996
    25  H    0.244087
 Sum of Mulliken charges =   1.00000

 Dipole moment (field-independent basis, Debye):
    X=             -0.0378    Y=              0.2181    Z=             -0.0093  Tot=              0.2215
 Quadrupole moment (field-independent basis, Debye-Ang):
   XX=            -30.3823   YY=            -57.1436   ZZ=            -83.8176
   XY=              0.2638   XZ=             -0.1046   YZ=              0.5422

 Normal termination of Gaussian 16 at Wed Jul 27 10:04:25 2022.
