 Gaussian 16, Revision C.01,
 Gaussian 16:  ES64L-G16RevC.01  3-Jul-2019

 ---------------------------------------------------------------
 #n M062X/6-311++G(d,p) TD(NStates=1) EmpiricalDispersion=GD3 SP
 ---------------------------------------------------------------

 ----
 SP_0
 ----
 Symbolic Z-matrix:
 Charge =  1 Multiplicity = 1

                         Standard orientation:
 ---------------------------------------------------------------------
 Center     Atomic      Atomic             Coordinates (Angstroms)
 Number     Number       Type             X           Y           Z
 ---------------------------------------------------------------------
      1          6           0        0.000000    2.492700    1.376132
      2          6           0        0.008000    3.701500    0.689732
      3          6           0        0.016000    3.683900   -0.705068
      4          6           0        0.008000    2.463200   -1.427868
      5          6           0       -0.008000   -2.463200   -1.427868
      6          6           0       -0.016000   -3.683900   -0.705068
      7          6           0       -0.008000   -3.701500    0.689732
      8          6           0       -0.000000   -2.492700    1.376132
      9          6           0       -0.000000    0.000000    1.461132
     10          6           0        0.000000   -0.000000   -1.458468
     11          6           0       -0.011000    1.262100    0.667732
     12          6           0        0.001000    1.237500   -0.740068
     13          6           0        0.011000   -1.262100    0.667732
     14          6           0       -0.001000   -1.237500   -0.740068
     15          1           0        0.000000    2.488100    2.448332
     16          1           0        0.007000    4.636800    1.229432
     17          1           0        0.002000    4.609300   -1.271668
     18          1           0        0.008000    2.467500   -2.499368
     19          1           0        0.000000   -0.000000   -2.535568
     20          1           0       -0.008000   -2.467500   -2.499368
     21          1           0       -0.002000   -4.609300   -1.271668
     22          1           0       -0.007000   -4.636800    1.229432
     23          1           0       -0.000000   -2.488100    2.448332
     24          1           0       -0.859600    0.000000    2.189532
     25          1           0        0.859600   -0.000000    2.189532
 ---------------------------------------------------------------------

 SCF Done:  E(RM062X) =  -539.754589779     A.U. after   15 cycles

 Excitation energies and oscillator strengths:

 Excited State   1:      Singlet-A      2.7354 eV  453.26 nm  f=0.0287  <S**2>=0.000
      47 -> 48         0.70441
 This state for optimization and/or second-order correction.
 Total Energy, E(TD-HF/TD-DFT) =  -539.654067198
 Copying the excited state density for this state as the 1-particle RhoCI density.

 The electronic state is 1-A.
 Alpha  occ. eigenvalues --  -10.77937 -10.73484 -10.73484 -10.72640 -10.72638
 Alpha  occ. eigenvalues --  -10.71515 -10.71426 -10.71426 -10.71026 -10.71026
 Alpha  occ. eigenvalues --  -10.70050 -10.70050 -10.69850 -10.69850  -1.16057
 Alpha  occ. eigenvalues --   -1.12063  -1.06633  -1.05289  -1.01279  -0.99718
 Alpha  occ. eigenvalues --   -0.95616  -0.90631  -0.86525  -0.85621  -0.83915
 Alpha  occ. eigenvalues --   -0.78173  -0.75643  -0.74460  -0.69571  -0.69301
 Alpha  occ. eigenvalues --   -0.68412  -0.68245  -0.67284  -0.64869  -0.64723
 Alpha  occ. eigenvalues --   -0.62344  -0.61925  -0.59470  -0.59376  -0.58798
 Alpha  occ. eigenvalues --   -0.57236  -0.55781  -0.54314  -0.52233  -0.46478
 Alpha  occ. eigenvalues --   -0.45871  -0.44221
 Alpha virt. eigenvalues --   -0.26170  -0.14983  -0.14062  -0.13003  -0.11184
 Alpha virt. eigenvalues --   -0.10145  -0.09203  -0.08039  -0.07930  -0.07489
 Alpha virt. eigenvalues --   -0.07211  -0.07198  -0.05651  -0.05606  -0.05387

 Mulliken charges:
               1
     1  C    0.075844
     2  C   -0.401495
     3  C   -0.441456
     4  C   -0.009761
     5  C   -0.009761
     6  C   -0.441456
     7  C   -0.401495
     8  C    0.075844
     9  C   -0.362825
    10  C    0.098883
    11  C   -0.556052
    12  C    0.650491
    13  C   -0.556052
    14  C    0.650491
    15  H    0.235400
    16  H    0.256726
    17  H    0.250445
    18  H    0.217605
    19  H    0.196892
    20  H    0.217605
    21  H    0.250445
    22  H    0.256726
    23  H    0.235400
    24  H    0.255777
    25  H    0.255777
 Sum of Mulliken charges =   1.00000

 Dipole moment (field-independent basis, Debye):
    X=             -0.0000    Y=              0.0000    Z=             -0.1557  Tot=              0.1557
 Quadrupole moment (field-independent basis, Debye-Ang):
   XX=            -84.4670   YY=            -31.8709   ZZ=            -55.3593
   XY=             -0.0210   XZ=             -0.0000   YZ=             -0.0000

 Normal termination of Gaussian 16 at Wed Jul 27 10:57:57 2022.
