 Gaussian 16, Revision C.01,
 Gaussian 16:  ES64L-G16RevC.01  3-Jul-2019

 ---------------------------------------------------------------
 #n M062X/6-311++G(d,p) TD(NStates=1) EmpiricalDispersion=GD3 SP
 ---------------------------------------------------------------

 -----
 SP_-4
 -----
 Symbolic Z-matrix:
 Charge =  1 Multiplicity = 1

                         Standard orientation:
 ---------------------------------------------------------------------
 Center     Atomic      Atomic             Coordinates (Angstroms)
 Number     Number       Type             X           Y           Z
 ---------------------------------------------------------------------
      1          6           0        2.483726   -1.408675    0.023199
      2          6           0        3.697051   -0.764569   -0.025127
      3          6           0        3.688211    0.645842   -0.004066
      4          6           0        2.473008    1.500667   -0.022632
      5          6           0       -2.453951    1.480951   -0.000097
      6          6           0       -3.680119    0.710549    0.066312
      7          6           0       -3.706094   -0.720659   -0.020067
      8          6           0       -2.501797   -1.441046   -0.019404
      9          6           0       -0.009926   -1.488749    0.063008
     10          6           0        0.010102    1.549639   -0.036672
     11          6           0        1.257695   -0.634688    0.056869
     12          6           0        1.242545    0.773837   -0.010307
     13          6           0       -1.265841   -0.646611   -0.052586
     14          6           0       -1.232536    0.765161   -0.023106
     15          1           0        2.473047   -2.422928   -0.019759
     16          1           0        4.629763   -1.271058   -0.096906
     17          1           0        4.616373    1.260733    0.144128
     18          1           0        2.483812    2.586144    0.023618
     19          1           0        0.016479    2.613767    0.008555
     20          1           0       -2.452318    2.470587    0.041649
     21          1           0       -4.602168    1.270404    0.084584
     22          1           0       -4.644248   -1.286859   -0.118040
     23          1           0       -2.503563   -2.503305   -0.064507
     24          1           0       -0.013889   -2.363420    0.871085
     25          1           0       -0.015729   -2.283953   -0.846350
 ---------------------------------------------------------------------

 SCF Done:  E(RM062X) =  -539.687523401     A.U. after   17 cycles

 Excitation energies and oscillator strengths:

 Excited State   1:      Singlet-A      2.4376 eV  508.63 nm  f=0.0277  <S**2>=0.000
      47 -> 48         0.70466
 This state for optimization and/or second-order correction.
 Total Energy, E(TD-HF/TD-DFT) =  -539.597943513
 Copying the excited state density for this state as the 1-particle RhoCI density.

 The electronic state is 1-A.
 Alpha  occ. eigenvalues --  -10.78743 -10.74417 -10.74186 -10.73343 -10.73327
 Alpha  occ. eigenvalues --  -10.73205 -10.72387 -10.71548 -10.70937 -10.70826
 Alpha  occ. eigenvalues --  -10.70788 -10.70745 -10.70435 -10.69860  -1.14860
 Alpha  occ. eigenvalues --   -1.10880  -1.05899  -1.03843  -1.01119  -0.98311
 Alpha  occ. eigenvalues --   -0.95093  -0.89401  -0.86816  -0.84923  -0.84069
 Alpha  occ. eigenvalues --   -0.77585  -0.74551  -0.74330  -0.70579  -0.69790
 Alpha  occ. eigenvalues --   -0.68461  -0.67370  -0.65654  -0.65132  -0.64666
 Alpha  occ. eigenvalues --   -0.61989  -0.60264  -0.58492  -0.58195  -0.57947
 Alpha  occ. eigenvalues --   -0.57529  -0.56942  -0.52567  -0.51532  -0.46321
 Alpha  occ. eigenvalues --   -0.44938  -0.43301
 Alpha virt. eigenvalues --   -0.26464  -0.15916  -0.14299  -0.13582  -0.11250
 Alpha virt. eigenvalues --   -0.10358  -0.09143  -0.08515  -0.07835  -0.07541
 Alpha virt. eigenvalues --   -0.07413  -0.07166  -0.05755  -0.05694  -0.05578

 Mulliken charges:
               1
     1  C   -0.039341
     2  C   -0.357258
     3  C   -0.330638
     4  C   -0.252719
     5  C   -0.180811
     6  C   -0.392473
     7  C   -0.204482
     8  C   -0.380486
     9  C   -0.631060
    10  C   -0.141613
    11  C   -0.365885
    12  C    0.760499
    13  C   -0.024564
    14  C    0.918084
    15  H    0.224537
    16  H    0.253843
    17  H    0.241675
    18  H    0.222576
    19  H    0.214911
    20  H    0.180945
    21  H    0.247779
    22  H    0.265661
    23  H    0.223548
    24  H    0.287035
    25  H    0.260235
 Sum of Mulliken charges =   1.00000

 Dipole moment (field-independent basis, Debye):
    X=             -0.0201    Y=              0.0544    Z=             -0.0129  Tot=              0.0594
 Quadrupole moment (field-independent basis, Debye-Ang):
   XX=            -34.1212   YY=            -52.6152   ZZ=            -85.4479
   XY=              0.3713   XZ=              0.5536   YZ=              0.7119

 Normal termination of Gaussian 16 at Wed Jul 27 09:31:23 2022.
