 Gaussian 16, Revision C.01,
 Gaussian 16:  ES64L-G16RevC.01  3-Jul-2019

 ---------------------------------------------------------------
 #n M062X/6-311++G(d,p) TD(NStates=1) EmpiricalDispersion=GD3 SP
 ---------------------------------------------------------------

 ----
 SP_4
 ----
 Symbolic Z-matrix:
 Charge =  1 Multiplicity = 1

                         Standard orientation:
 ---------------------------------------------------------------------
 Center     Atomic      Atomic             Coordinates (Angstroms)
 Number     Number       Type             X           Y           Z
 ---------------------------------------------------------------------
      1          6           0       -2.501509   -1.425739   -0.014291
      2          6           0       -3.705858   -0.703174   -0.020132
      3          6           0       -3.679941    0.719383    0.058403
      4          6           0       -2.454251    1.460669   -0.003486
      5          6           0        2.472549    1.480437   -0.019884
      6          6           0        3.688045    0.654394    0.005226
      7          6           0        3.697169   -0.746644   -0.024034
      8          6           0        2.484084   -1.392590    0.018355
      9          6           0       -0.009518   -1.481070    0.062744
     10          6           0        0.009610    1.520404   -0.037388
     11          6           0       -1.265964   -0.656577   -0.039779
     12          6           0       -1.232750    0.755747   -0.021742
     13          6           0        1.257921   -0.643273    0.042658
     14          6           0        1.242338    0.764719   -0.011891
     15          1           0       -2.503262   -2.498966   -0.060362
     16          1           0       -4.644122   -1.269528   -0.115474
     17          1           0       -4.602175    1.270440    0.092372
     18          1           0       -2.452627    2.461275    0.039197
     19          1           0        0.015932    2.588509    0.008473
     20          1           0        2.483338    2.576884    0.027327
     21          1           0        4.616444    1.262030    0.137471
     22          1           0        4.629823   -1.252906   -0.098895
     23          1           0        2.473415   -2.417813   -0.025532
     24          1           0       -0.000801   -2.240021   -0.845171
     25          1           0       -0.027513   -2.320032    0.872033
 ---------------------------------------------------------------------

 SCF Done:  E(RM062X) =  -539.711920641     A.U. after   16 cycles

 Excitation energies and oscillator strengths:

 Excited State   1:      Singlet-A      2.5342 eV  489.24 nm  f=0.0280  <S**2>=0.000
      47 -> 48         0.70460
 This state for optimization and/or second-order correction.
 Total Energy, E(TD-HF/TD-DFT) =  -539.618789617
 Copying the excited state density for this state as the 1-particle RhoCI density.

 The electronic state is 1-A.
 Alpha  occ. eigenvalues --  -10.78473 -10.74163 -10.73932 -10.73130 -10.73093
 Alpha  occ. eigenvalues --  -10.72661 -10.72300 -10.71524 -10.70863 -10.70718
 Alpha  occ. eigenvalues --  -10.70704 -10.70536 -10.70195 -10.69763  -1.15227
 Alpha  occ. eigenvalues --   -1.11254  -1.06118  -1.04319  -1.01153  -0.98758
 Alpha  occ. eigenvalues --   -0.95240  -0.89799  -0.86721  -0.85033  -0.84097
 Alpha  occ. eigenvalues --   -0.77740  -0.74811  -0.74471  -0.70256  -0.69584
 Alpha  occ. eigenvalues --   -0.68371  -0.67649  -0.65779  -0.65435  -0.64752
 Alpha  occ. eigenvalues --   -0.61991  -0.60941  -0.58802  -0.58522  -0.57822
 Alpha  occ. eigenvalues --   -0.57774  -0.56746  -0.53102  -0.51727  -0.46339
 Alpha  occ. eigenvalues --   -0.45235  -0.43591
 Alpha virt. eigenvalues --   -0.26360  -0.15618  -0.14171  -0.13455  -0.11224
 Alpha virt. eigenvalues --   -0.10287  -0.09161  -0.08356  -0.07862  -0.07525
 Alpha virt. eigenvalues --   -0.07366  -0.07169  -0.05710  -0.05674  -0.05525

 Mulliken charges:
               1
     1  C   -0.388342
     2  C   -0.201842
     3  C   -0.416081
     4  C   -0.152067
     5  C   -0.216721
     6  C   -0.354895
     7  C   -0.359044
     8  C   -0.069712
     9  C   -0.594187
    10  C   -0.128638
    11  C   -0.000524
    12  C    0.837247
    13  C   -0.368683
    14  C    0.794346
    15  H    0.226258
    16  H    0.264779
    17  H    0.249454
    18  H    0.185257
    19  H    0.206031
    20  H    0.226296
    21  H    0.245697
    22  H    0.253214
    23  H    0.224821
    24  H    0.258559
    25  H    0.278776
 Sum of Mulliken charges =   1.00000

 Dipole moment (field-independent basis, Debye):
    X=             -0.0284    Y=              0.0873    Z=             -0.0130  Tot=              0.0927
 Quadrupole moment (field-independent basis, Debye-Ang):
   XX=            -33.4025   YY=            -53.5156   ZZ=            -85.1135
   XY=              0.3710   XZ=              0.3941   YZ=              0.7154

 Normal termination of Gaussian 16 at Wed Jul 27 12:11:18 2022.
