 Gaussian 16, Revision C.01,
 Gaussian 16:  ES64L-G16RevC.01  3-Jul-2019

 ---------------------------------------------------------------
 #n M062X/6-311++G(d,p) TD(NStates=1) EmpiricalDispersion=GD3 SP
 ---------------------------------------------------------------

 ----
 SP_3
 ----
 Symbolic Z-matrix:
 Charge =  1 Multiplicity = 1

                         Standard orientation:
 ---------------------------------------------------------------------
 Center     Atomic      Atomic             Coordinates (Angstroms)
 Number     Number       Type             X           Y           Z
 ---------------------------------------------------------------------
      1          6           0       -2.498117   -1.343865    0.011735
      2          6           0       -3.704132   -0.620949   -0.014945
      3          6           0       -3.680868    0.755761    0.010368
      4          6           0       -2.457818    1.360832   -0.016451
      5          6           0        2.468779    1.375752   -0.003823
      6          6           0        3.686990    0.705692    0.042756
      7          6           0        3.698872   -0.652001   -0.014025
      8          6           0        2.487399   -1.316020   -0.007424
      9          6           0       -0.005621   -1.440626    0.046135
     10          6           0        0.005410    1.372658   -0.030991
     11          6           0       -1.264856   -0.703687    0.025188
     12          6           0       -1.234701    0.709241   -0.010243
     13          6           0        1.259224   -0.688281   -0.028494
     14          6           0        1.240348    0.717093   -0.015971
     15          1           0       -2.498208   -2.466432   -0.026378
     16          1           0       -4.641963   -1.181916   -0.074724
     17          1           0       -4.603811    1.272184    0.103066
     18          1           0       -2.457656    2.428734    0.019660
     19          1           0        0.009958    2.461129    0.005856
     20          1           0        2.477842    2.515571    0.034886
     21          1           0        4.614816    1.270659    0.073703
     22          1           0        4.631820   -1.166408   -0.083674
     23          1           0        2.478259   -2.402574   -0.044182
     24          1           0       -0.005732   -2.028837   -0.844598
     25          1           0       -0.010778   -2.091714    0.873486
 ---------------------------------------------------------------------

 SCF Done:  E(RM062X) =  -539.746024926     A.U. after   15 cycles

 Excitation energies and oscillator strengths:

 Excited State   1:      Singlet-A      2.9729 eV  417.05 nm  f=0.0283  <S**2>=0.000
      47 -> 48         0.70386
 This state for optimization and/or second-order correction.
 Total Energy, E(TD-HF/TD-DFT) =  -539.636774356
 Copying the excited state density for this state as the 1-particle RhoCI density.

 The electronic state is 1-A.
 Alpha  occ. eigenvalues --  -10.77126 -10.72910 -10.72712 -10.72130 -10.72030
 Alpha  occ. eigenvalues --  -10.71795 -10.71356 -10.70790 -10.70634 -10.70202
 Alpha  occ. eigenvalues --  -10.69984 -10.69480 -10.69345 -10.69170  -1.17187
 Alpha  occ. eigenvalues --   -1.13276  -1.07749  -1.06452  -1.01500  -1.00959
 Alpha  occ. eigenvalues --   -0.96107  -0.91899  -0.86424  -0.86156  -0.83689
 Alpha  occ. eigenvalues --   -0.78864  -0.76706  -0.74316  -0.70451  -0.69898
 Alpha  occ. eigenvalues --   -0.69194  -0.68234  -0.67790  -0.64929  -0.63823
 Alpha  occ. eigenvalues --   -0.63238  -0.61754  -0.60958  -0.60288  -0.59459
 Alpha  occ. eigenvalues --   -0.56244  -0.55671  -0.53992  -0.52790  -0.47153
 Alpha  occ. eigenvalues --   -0.46134  -0.44999
 Alpha virt. eigenvalues --   -0.25951  -0.14255  -0.14053  -0.12373  -0.11182
 Alpha virt. eigenvalues --   -0.09987  -0.09291  -0.08146  -0.07933  -0.07457
 Alpha virt. eigenvalues --   -0.07180  -0.07035  -0.05641  -0.05553  -0.05249

 Mulliken charges:
               1
     1  C    0.058854
     2  C   -0.420384
     3  C   -0.427680
     4  C    0.076513
     5  C    0.150969
     6  C   -0.453467
     7  C   -0.372515
     8  C    0.070322
     9  C   -0.324090
    10  C    0.090724
    11  C   -0.710078
    12  C    0.603720
    13  C   -0.707497
    14  C    0.778588
    15  H    0.245967
    16  H    0.259105
    17  H    0.239808
    18  H    0.213557
    19  H    0.177162
    20  H    0.243124
    21  H    0.242961
    22  H    0.253443
    23  H    0.231116
    24  H    0.239228
    25  H    0.240548
 Sum of Mulliken charges =   1.00000

 Dipole moment (field-independent basis, Debye):
    X=             -0.0401    Y=              0.2515    Z=             -0.0087  Tot=              0.2548
 Quadrupole moment (field-independent basis, Debye-Ang):
   XX=            -29.6085   YY=            -58.0536   ZZ=            -83.5032
   XY=              0.2590   XZ=             -0.2441   YZ=              0.5433

 Normal termination of Gaussian 16 at Wed Jul 27 12:02:05 2022.
