 Gaussian 16, Revision C.01,
 Gaussian 16:  ES64L-G16RevC.01  3-Jul-2019

 ---------------------------------------------------------------
 #n M062X/6-311++G(d,p) TD(NStates=1) EmpiricalDispersion=GD3 SP
 ---------------------------------------------------------------

 -----
 SP_-4
 -----
 Symbolic Z-matrix:
 Charge =  1 Multiplicity = 1

                         Standard orientation:
 ---------------------------------------------------------------------
 Center     Atomic      Atomic             Coordinates (Angstroms)
 Number     Number       Type             X           Y           Z
 ---------------------------------------------------------------------
      1          6           0        2.485387   -1.328221   -0.001469
      2          6           0        3.697783   -0.674973   -0.020344
      3          6           0        3.687873    0.688501    0.041672
      4          6           0        2.470971    1.399484   -0.009566
      5          6           0       -2.455644    1.379589   -0.016633
      6          6           0       -3.679724    0.754812    0.027671
      7          6           0       -3.705117   -0.633212   -0.019444
      8          6           0       -2.500284   -1.364543    0.006806
      9          6           0       -0.007889   -1.450357    0.061711
     10          6           0        0.007678    1.403475   -0.040458
     11          6           0        1.258338   -0.677497   -0.014556
     12          6           0        1.241512    0.728257   -0.018559
     13          6           0       -1.265953   -0.696547    0.011628
     14          6           0       -1.233583    0.718086   -0.016073
     15          1           0        2.474759   -2.397321   -0.049195
     16          1           0        4.630102   -1.180305   -0.107753
     17          1           0        4.616650    1.267251    0.109868
     18          1           0        2.481701    2.539801    0.041607
     19          1           0        0.013791    2.487483    0.007998
     20          1           0       -2.454055    2.424068    0.029919
     21          1           0       -4.602064    1.270541    0.124574
     22          1           0       -4.643766   -1.200199   -0.104070
     23          1           0       -2.501983   -2.481637   -0.043261
     24          1           0       -0.001888   -2.147005    0.876571
     25          1           0       -0.021344   -2.063793   -0.840579
 ---------------------------------------------------------------------

 SCF Done:  E(RM062X) =  -539.748335303     A.U. after   15 cycles

 Excitation energies and oscillator strengths:

 Excited State   1:      Singlet-A      2.8862 eV  429.57 nm  f=0.0285  <S**2>=0.000
      47 -> 48         0.70402
 This state for optimization and/or second-order correction.
 Total Energy, E(TD-HF/TD-DFT) =  -539.642267681
 Copying the excited state density for this state as the 1-particle RhoCI density.

 The electronic state is 1-A.
 Alpha  occ. eigenvalues --  -10.77387 -10.73209 -10.72929 -10.72347 -10.72228
 Alpha  occ. eigenvalues --  -10.72015 -10.71483 -10.70658 -10.70548 -10.70525
 Alpha  occ. eigenvalues --  -10.70395 -10.69599 -10.69431 -10.69345  -1.16750
 Alpha  occ. eigenvalues --   -1.12837  -1.07299  -1.06102  -1.01322  -1.00582
 Alpha  occ. eigenvalues --   -0.95897  -0.91471  -0.86324  -0.86046  -0.83747
 Alpha  occ. eigenvalues --   -0.78592  -0.76330  -0.74358  -0.70048  -0.69210
 Alpha  occ. eigenvalues --   -0.68942  -0.68219  -0.68046  -0.64608  -0.63919
 Alpha  occ. eigenvalues --   -0.63507  -0.61818  -0.60534  -0.59991  -0.59096
 Alpha  occ. eigenvalues --   -0.56517  -0.55205  -0.54614  -0.52531  -0.46836
 Alpha  occ. eigenvalues --   -0.46053  -0.44704
 Alpha virt. eigenvalues --   -0.26016  -0.14383  -0.14219  -0.12599  -0.11185
 Alpha virt. eigenvalues --   -0.10044  -0.09257  -0.08133  -0.07924  -0.07470
 Alpha virt. eigenvalues --   -0.07186  -0.07120  -0.05647  -0.05584  -0.05305

 Mulliken charges:
               1
     1  C    0.084023
     2  C   -0.371115
     3  C   -0.453279
     4  C    0.112177
     5  C    0.029627
     6  C   -0.434132
     7  C   -0.392115
     8  C    0.066562
     9  C   -0.377365
    10  C    0.091783
    11  C   -0.670158
    12  C    0.738933
    13  C   -0.684221
    14  C    0.666688
    15  H    0.226171
    16  H    0.252318
    17  H    0.248249
    18  H    0.241785
    19  H    0.178410
    20  H    0.202363
    21  H    0.244698
    22  H    0.259906
    23  H    0.244642
    24  H    0.249576
    25  H    0.244475
 Sum of Mulliken charges =   1.00000

 Dipole moment (field-independent basis, Debye):
    X=             -0.0512    Y=              0.2157    Z=             -0.0118  Tot=              0.2220
 Quadrupole moment (field-independent basis, Debye-Ang):
   XX=            -30.4080   YY=            -57.1243   ZZ=            -83.8138
   XY=              0.3517   XZ=             -0.0935   YZ=              0.7214

 Normal termination of Gaussian 16 at Wed Jul 27 09:43:20 2022.
