 Gaussian 16, Revision C.01,
 Gaussian 16:  ES64L-G16RevC.01  3-Jul-2019

 ---------------------------------------------------------------
 #n M062X/6-311++G(d,p) TD(NStates=1) EmpiricalDispersion=GD3 SP
 ---------------------------------------------------------------

 -----
 SP_-3
 -----
 Symbolic Z-matrix:
 Charge =  1 Multiplicity = 1

                         Standard orientation:
 ---------------------------------------------------------------------
 Center     Atomic      Atomic             Coordinates (Angstroms)
 Number     Number       Type             X           Y           Z
 ---------------------------------------------------------------------
      1          6           0        2.486964   -1.348016    0.002406
      2          6           0        3.698593   -0.687706   -0.015851
      3          6           0        3.686879    0.688590    0.024641
      4          6           0        2.469272    1.416290   -0.009248
      5          6           0       -2.457237    1.401361   -0.009872
      6          6           0       -3.680777    0.738056    0.026289
      7          6           0       -3.704339   -0.656078   -0.014846
      8          6           0       -2.498596   -1.374685    0.001358
      9          6           0       -0.006214   -1.456015    0.046509
     10          6           0        0.006111    1.431166   -0.029770
     11          6           0        1.259245   -0.670828   -0.000278
     12          6           0        1.240652    0.735421   -0.012743
     13          6           0       -1.265034   -0.684028   -0.000798
     14          6           0       -1.234403    0.728007   -0.013054
     15          1           0        2.477811   -2.412606   -0.032880
     16          1           0        4.631694   -1.202449   -0.079377
     17          1           0        4.614773    1.268343    0.087536
     18          1           0        2.478353    2.534146    0.027954
     19          1           0        0.010732    2.511665    0.006088
     20          1           0       -2.457063    2.447301    0.024743
     21          1           0       -4.603897    1.271752    0.087494
     22          1           0       -4.642052   -1.216793   -0.080057
     23          1           0       -2.498703   -2.475291   -0.035223
     24          1           0       -0.003189   -2.178559    0.871672
     25          1           0       -0.015159   -2.116717   -0.846415
 ---------------------------------------------------------------------

 SCF Done:  E(RM062X) =  -539.753714617     A.U. after   15 cycles

 Excitation energies and oscillator strengths:

 Excited State   1:      Singlet-A      2.8120 eV  440.91 nm  f=0.0286  <S**2>=0.000
      47 -> 48         0.70422
 This state for optimization and/or second-order correction.
 Total Energy, E(TD-HF/TD-DFT) =  -539.650375613
 Copying the excited state density for this state as the 1-particle RhoCI density.

 The electronic state is 1-A.
 Alpha  occ. eigenvalues --  -10.77661 -10.73379 -10.73175 -10.72500 -10.72423
 Alpha  occ. eigenvalues --  -10.71898 -10.71359 -10.71018 -10.70859 -10.70680
 Alpha  occ. eigenvalues --  -10.70340 -10.69762 -10.69619 -10.69552  -1.16395
 Alpha  occ. eigenvalues --   -1.12444  -1.06936  -1.05715  -1.01283  -1.00158
 Alpha  occ. eigenvalues --   -0.95747  -0.91051  -0.86419  -0.85835  -0.83825
 Alpha  occ. eigenvalues --   -0.78372  -0.75992  -0.74410  -0.69649  -0.69292
 Alpha  occ. eigenvalues --   -0.68416  -0.68155  -0.68050  -0.64729  -0.64252
 Alpha  occ. eigenvalues --   -0.63065  -0.61867  -0.60053  -0.59679  -0.58920
 Alpha  occ. eigenvalues --   -0.56878  -0.55245  -0.54731  -0.52375  -0.46610
 Alpha  occ. eigenvalues --   -0.46000  -0.44463
 Alpha virt. eigenvalues --   -0.26089  -0.14685  -0.14137  -0.12799  -0.11184
 Alpha virt. eigenvalues --   -0.10093  -0.09228  -0.08070  -0.07932  -0.07479
 Alpha virt. eigenvalues --   -0.07209  -0.07152  -0.05648  -0.05595  -0.05346

 Mulliken charges:
               1
     1  C    0.089346
     2  C   -0.392441
     3  C   -0.447723
     4  C    0.053024
     5  C   -0.013030
     6  C   -0.435366
     7  C   -0.386442
     8  C    0.081902
     9  C   -0.379717
    10  C    0.091852
    11  C   -0.635735
    12  C    0.688626
    13  C   -0.646351
    14  C    0.722106
    15  H    0.228950
    16  H    0.252967
    17  H    0.249914
    18  H    0.235273
    19  H    0.186389
    20  H    0.204366
    21  H    0.248109
    22  H    0.259482
    23  H    0.241588
    24  H    0.253709
    25  H    0.249202
 Sum of Mulliken charges =   1.00000

 Dipole moment (field-independent basis, Debye):
    X=             -0.0346    Y=              0.1855    Z=             -0.0097  Tot=              0.1889
 Quadrupole moment (field-independent basis, Debye-Ang):
   XX=            -31.1471   YY=            -56.2382   ZZ=            -84.1372
   XY=              0.2682   XZ=              0.0192   YZ=              0.5412

 Normal termination of Gaussian 16 at Wed Jul 27 10:02:07 2022.
