 Gaussian 16, Revision C.01,
 Gaussian 16:  ES64L-G16RevC.01  3-Jul-2019

 ---------------------------------------------------------------
 #n M062X/6-311++G(d,p) TD(NStates=1) EmpiricalDispersion=GD3 SP
 ---------------------------------------------------------------

 -----
 SP_-1
 -----
 Symbolic Z-matrix:
 Charge =  1 Multiplicity = 1

                         Standard orientation:
 ---------------------------------------------------------------------
 Center     Atomic      Atomic             Coordinates (Angstroms)
 Number     Number       Type             X           Y           Z
 ---------------------------------------------------------------------
      1          6           0        2.490593   -1.387698    0.010802
      2          6           0        3.700489   -0.712811   -0.006309
      3          6           0        3.685006    0.688141   -0.008891
      4          6           0        2.465441    1.450770   -0.008909
      5          6           0       -2.461061    1.445803    0.002877
      6          6           0       -3.682978    0.704468    0.025158
      7          6           0       -3.702572   -0.702054   -0.004472
      8          6           0       -2.494784   -1.396199   -0.009697
      9          6           0       -0.002273   -1.469132    0.015645
     10          6           0        0.002277    1.487966   -0.009549
     11          6           0        1.261013   -0.656652    0.027373
     12          6           0        1.238645    0.750616   -0.001165
     13          6           0       -1.262995   -0.660337   -0.027001
     14          6           0       -1.236357    0.748291   -0.007319
     15          1           0        2.484452   -2.442829   -0.000637
     16          1           0        4.635060   -1.244727   -0.021744
     17          1           0        4.611075    1.269814    0.043745
     18          1           0        2.471307    2.523200    0.002733
     19          1           0        0.003843    2.561003    0.002082
     20          1           0       -2.463830    2.494248    0.014201
     21          1           0       -4.607488    1.271584    0.014046
     22          1           0       -4.638593   -1.249109   -0.031740
     23          1           0       -2.491742   -2.463343   -0.021240
     24          1           0       -0.004891   -2.243558    0.863189
     25          1           0       -0.001857   -2.223326   -0.855894
 ---------------------------------------------------------------------

 SCF Done:  E(RM062X) =  -539.741950766     A.U. after   16 cycles

 Excitation energies and oscillator strengths:

 Excited State   1:      Singlet-A      2.6434 eV  469.04 nm  f=0.0285  <S**2>=0.000
      47 -> 48         0.70455
 This state for optimization and/or second-order correction.
 Total Energy, E(TD-HF/TD-DFT) =  -539.644809435
 Copying the excited state density for this state as the 1-particle RhoCI density.

 The electronic state is 1-A.
 Alpha  occ. eigenvalues --  -10.78208 -10.73767 -10.73704 -10.72859 -10.72844
 Alpha  occ. eigenvalues --  -10.72059 -10.71671 -10.71313 -10.71161 -10.70950
 Alpha  occ. eigenvalues --  -10.70252 -10.70125 -10.70043 -10.70014  -1.15672
 Alpha  occ. eigenvalues --   -1.11667  -1.06365  -1.04818  -1.01247  -0.99249
 Alpha  occ. eigenvalues --   -0.95453  -0.90210  -0.86625  -0.85346  -0.84017
 Alpha  occ. eigenvalues --   -0.77962  -0.75244  -0.74489  -0.69844  -0.69414
 Alpha  occ. eigenvalues --   -0.68331  -0.68060  -0.66523  -0.65116  -0.64914
 Alpha  occ. eigenvalues --   -0.61969  -0.61614  -0.59078  -0.58923  -0.58460
 Alpha  occ. eigenvalues --   -0.57552  -0.56302  -0.53771  -0.52024  -0.46410
 Alpha  occ. eigenvalues --   -0.45602  -0.43931
 Alpha virt. eigenvalues --   -0.26258  -0.15292  -0.14060  -0.13227  -0.11195
 Alpha virt. eigenvalues --   -0.10210  -0.09183  -0.08150  -0.07885  -0.07506
 Alpha virt. eigenvalues --   -0.07258  -0.07210  -0.05665  -0.05638  -0.05446

 Mulliken charges:
               1
     1  C   -0.170494
     2  C   -0.322244
     3  C   -0.398745
     4  C   -0.158078
     5  C   -0.153525
     6  C   -0.409868
     7  C   -0.284412
     8  C   -0.236196
     9  C   -0.502336
    10  C   -0.100101
    11  C   -0.226241
    12  C    0.739122
    13  C   -0.141362
    14  C    0.736744
    15  H    0.229176
    16  H    0.256892
    17  H    0.249815
    18  H    0.217693
    19  H    0.204051
    20  H    0.207114
    21  H    0.250226
    22  H    0.259901
    23  H    0.230016
    24  H    0.262967
    25  H    0.259885
 Sum of Mulliken charges =   1.00000

 Dipole moment (field-independent basis, Debye):
    X=             -0.0088    Y=              0.1234    Z=             -0.0035  Tot=              0.1238
 Quadrupole moment (field-independent basis, Debye-Ang):
   XX=            -32.6149   YY=            -54.4540   ZZ=            -84.7917
   XY=              0.0910   XZ=              0.2671   YZ=              0.1800

 Normal termination of Gaussian 16 at Wed Jul 27 10:38:54 2022.
