 Gaussian 16, Revision C.01,
 Gaussian 16:  ES64L-G16RevC.01  3-Jul-2019

 ---------------------------------------------------------------
 #n M062X/6-311++G(d,p) TD(NStates=1) EmpiricalDispersion=GD3 SP
 ---------------------------------------------------------------

 -----
 SP_-3
 -----
 Symbolic Z-matrix:
 Charge =  1 Multiplicity = 1

                         Standard orientation:
 ---------------------------------------------------------------------
 Center     Atomic      Atomic             Coordinates (Angstroms)
 Number     Number       Type             X           Y           Z
 ---------------------------------------------------------------------
      1          6           0        2.487784   -1.284017   -0.017385
      2          6           0        3.699211   -0.616306   -0.012403
      3          6           0        3.687303    0.722763    0.060647
      4          6           0        2.468384    1.335202    0.001389
      5          6           0       -2.458480    1.320317   -0.022910
      6          6           0       -3.681161    0.773495   -0.005279
      7          6           0       -3.704002   -0.585812   -0.014752
      8          6           0       -2.497604   -1.313054    0.022313
      9          6           0       -0.005031   -1.425236    0.045775
     10          6           0        0.004721    1.314152   -0.032281
     11          6           0        1.259000   -0.705700   -0.056819
     12          6           0        1.240044    0.698767   -0.019301
     13          6           0       -1.264473   -0.723378    0.051228
     14          6           0       -1.234991    0.690475   -0.007370
     15          1           0        2.478656   -2.392533   -0.055646
     16          1           0        4.631968   -1.130371   -0.088238
     17          1           0        4.614822    1.272983    0.059567
     18          1           0        2.477431    2.496982    0.041637
     19          1           0        0.009199    2.410594    0.005567
     20          1           0       -2.458329    2.410180    0.014729
     21          1           0       -4.603671    1.272606    0.118951
     22          1           0       -4.641924   -1.147036   -0.069038
     23          1           0       -2.497680   -2.457580   -0.017364
     24          1           0        0.005671   -2.004971    0.875289
     25          1           0       -0.020381   -1.940861   -0.842560
 ---------------------------------------------------------------------

 SCF Done:  E(RM062X) =  -539.711655208     A.U. after   15 cycles

 Excitation energies and oscillator strengths:

 Excited State   1:      Singlet-A      3.1147 eV  398.06 nm  f=0.0273  <S**2>=0.000
      47 -> 48         0.70313
 This state for optimization and/or second-order correction.
 Total Energy, E(TD-HF/TD-DFT) =  -539.597192859
 Copying the excited state density for this state as the 1-particle RhoCI density.

 The electronic state is 1-A.
 Alpha  occ. eigenvalues --  -10.76611 -10.72485 -10.72280 -10.71797 -10.71765
 Alpha  occ. eigenvalues --  -10.71649 -10.71383 -10.70774 -10.70619 -10.70089
 Alpha  occ. eigenvalues --  -10.69372 -10.69018 -10.68986 -10.68849  -1.18019
 Alpha  occ. eigenvalues --   -1.14152  -1.08808  -1.07007  -1.02323  -1.01175
 Alpha  occ. eigenvalues --   -0.96514  -0.92723  -0.86953  -0.85905  -0.83693
 Alpha  occ. eigenvalues --   -0.79392  -0.77318  -0.74243  -0.71952  -0.71455
 Alpha  occ. eigenvalues --   -0.69331  -0.68443  -0.66859  -0.66296  -0.63049
 Alpha  occ. eigenvalues --   -0.62276  -0.61867  -0.61554  -0.60808  -0.59804
 Alpha  occ. eigenvalues --   -0.56850  -0.55272  -0.53206  -0.52634  -0.47829
 Alpha  occ. eigenvalues --   -0.46144  -0.45503
 Alpha virt. eigenvalues --   -0.25850  -0.14415  -0.13423  -0.12032  -0.11180
 Alpha virt. eigenvalues --   -0.09892  -0.09368  -0.08267  -0.08007  -0.07436
 Alpha virt. eigenvalues --   -0.07170  -0.06879  -0.05643  -0.05520  -0.05175

 Mulliken charges:
               1
     1  C   -0.028160
     2  C   -0.335472
     3  C   -0.443933
     4  C    0.255449
     5  C    0.122526
     6  C   -0.409121
     7  C   -0.440579
     8  C    0.013552
     9  C   -0.424615
    10  C    0.045570
    11  C   -0.645254
    12  C    0.943252
    13  C   -0.682217
    14  C    0.467663
    15  H    0.237816
    16  H    0.254397
    17  H    0.230558
    18  H    0.249708
    19  H    0.173380
    20  H    0.219973
    21  H    0.228598
    22  H    0.259646
    23  H    0.250881
    24  H    0.227224
    25  H    0.229159
 Sum of Mulliken charges =   1.00000

 Dipole moment (field-independent basis, Debye):
    X=             -0.0436    Y=              0.3228    Z=             -0.0067  Tot=              0.3258
 Quadrupole moment (field-independent basis, Debye-Ang):
   XX=            -28.0492   YY=            -59.8926   ZZ=            -82.8922
   XY=              0.2421   XZ=             -0.4483   YZ=              0.5444

 Normal termination of Gaussian 16 at Wed Jul 27 10:11:17 2022.
