 Gaussian 16, Revision C.01,
 Gaussian 16:  ES64L-G16RevC.01  3-Jul-2019

 ---------------------------------------------------------------
 #n M062X/6-311++G(d,p) TD(NStates=1) EmpiricalDispersion=GD3 SP
 ---------------------------------------------------------------

 -----
 SP_-2
 -----
 Symbolic Z-matrix:
 Charge =  1 Multiplicity = 1

                         Standard orientation:
 ---------------------------------------------------------------------
 Center     Atomic      Atomic             Coordinates (Angstroms)
 Number     Number       Type             X           Y           Z
 ---------------------------------------------------------------------
      1          6           0        2.489378   -1.288306   -0.018518
      2          6           0        3.700027   -0.611278   -0.007600
      3          6           0        3.686318    0.731501    0.051896
      4          6           0        2.466704    1.331995    0.004783
      5          6           0       -2.460102    1.322066   -0.019148
      6          6           0       -3.682223    0.765333   -0.014978
      7          6           0       -3.703221   -0.590944   -0.010504
      8          6           0       -2.495924   -1.307673    0.021817
      9          6           0       -0.003353   -1.423746    0.030535
     10          6           0        0.003147    1.312983   -0.021535
     11          6           0        1.259891   -0.708429   -0.056060
     12          6           0        1.239187    0.696846   -0.014959
     13          6           0       -1.263539   -0.720220    0.052338
     14          6           0       -1.235819    0.691315   -0.002835
     15          1           0        2.481743   -2.403196   -0.044166
     16          1           0        4.633587   -1.134339   -0.062257
     17          1           0        4.612944    1.274284    0.029791
     18          1           0        2.474135    2.482175    0.031310
     19          1           0        0.006132    2.409790    0.003701
     20          1           0       -2.461402    2.424283    0.006258
     21          1           0       -4.605509    1.274030    0.089254
     22          1           0       -4.640225   -1.145456   -0.042624
     23          1           0       -2.494425   -2.446579   -0.004503
     24          1           0        0.006133   -1.993194    0.870196
     25          1           0       -0.015938   -1.950457   -0.848350
 ---------------------------------------------------------------------

 SCF Done:  E(RM062X) =  -539.714635022     A.U. after   14 cycles

 Excitation energies and oscillator strengths:

 Excited State   1:      Singlet-A      3.1226 eV  397.05 nm  f=0.0273  <S**2>=0.000
      47 -> 48         0.70340
 This state for optimization and/or second-order correction.
 Total Energy, E(TD-HF/TD-DFT) =  -539.599881504
 Copying the excited state density for this state as the 1-particle RhoCI density.

 The electronic state is 1-A.
 Alpha  occ. eigenvalues --  -10.76615 -10.72429 -10.72294 -10.71761 -10.71689
 Alpha  occ. eigenvalues --  -10.71567 -10.71248 -10.70929 -10.70739 -10.69965
 Alpha  occ. eigenvalues --  -10.69487 -10.68994 -10.68948 -10.68855  -1.18047
 Alpha  occ. eigenvalues --   -1.14167  -1.08819  -1.07009  -1.02343  -1.01187
 Alpha  occ. eigenvalues --   -0.96530  -0.92729  -0.86981  -0.85914  -0.83696
 Alpha  occ. eigenvalues --   -0.79409  -0.77339  -0.74242  -0.71966  -0.71441
 Alpha  occ. eigenvalues --   -0.69360  -0.68450  -0.66835  -0.66318  -0.63040
 Alpha  occ. eigenvalues --   -0.62259  -0.61854  -0.61600  -0.60802  -0.59877
 Alpha  occ. eigenvalues --   -0.56909  -0.55283  -0.53239  -0.52622  -0.47847
 Alpha  occ. eigenvalues --   -0.46166  -0.45532
 Alpha virt. eigenvalues --   -0.25851  -0.14395  -0.13411  -0.12016  -0.11178
 Alpha virt. eigenvalues --   -0.09887  -0.09369  -0.08246  -0.08009  -0.07435
 Alpha virt. eigenvalues --   -0.07172  -0.06862  -0.05640  -0.05511  -0.05169

 Mulliken charges:
               1
     1  C   -0.027243
     2  C   -0.369000
     3  C   -0.437022
     4  C    0.220121
     5  C    0.123811
     6  C   -0.418525
     7  C   -0.448386
     8  C    0.009981
     9  C   -0.391383
    10  C    0.060741
    11  C   -0.615771
    12  C    0.914601
    13  C   -0.693695
    14  C    0.507177
    15  H    0.241725
    16  H    0.254885
    17  H    0.228596
    18  H    0.247749
    19  H    0.176200
    20  H    0.226889
    21  H    0.227425
    22  H    0.259182
    23  H    0.249025
    24  H    0.225247
    25  H    0.227670
 Sum of Mulliken charges =   1.00000

 Dipole moment (field-independent basis, Debye):
    X=             -0.0284    Y=              0.3250    Z=             -0.0047  Tot=              0.3263
 Quadrupole moment (field-independent basis, Debye-Ang):
   XX=            -28.0268   YY=            -59.9086   ZZ=            -82.8944
   XY=              0.1615   XZ=             -0.4586   YZ=              0.3639

 Normal termination of Gaussian 16 at Wed Jul 27 10:31:59 2022.
