 Gaussian 16, Revision C.01,
 Gaussian 16:  ES64L-G16RevC.01  3-Jul-2019

 ---------------------------------------------------------------
 #n M062X/6-311++G(d,p) TD(NStates=1) EmpiricalDispersion=GD3 SP
 ---------------------------------------------------------------

 ----
 SP_3
 ----
 Symbolic Z-matrix:
 Charge =  1 Multiplicity = 1

                         Standard orientation:
 ---------------------------------------------------------------------
 Center     Atomic      Atomic             Coordinates (Angstroms)
 Number     Number       Type             X           Y           Z
 ---------------------------------------------------------------------
      1          6           0       -2.499266   -1.420906   -0.014352
      2          6           0       -3.704799   -0.708718   -0.014925
      3          6           0       -3.681013    0.711592    0.049913
      4          6           0       -2.456498    1.462207   -0.000294
      5          6           0        2.470216    1.477049   -0.017265
      6          6           0        3.687089    0.662839   -0.002178
      7          6           0        3.698284   -0.741323   -0.018204
      8          6           0        2.486202   -1.396022    0.017423
      9          6           0       -0.007134   -1.479099    0.047092
     10          6           0        0.007204    1.518932   -0.028066
     11          6           0       -1.264927   -0.654586   -0.039933
     12          6           0       -1.233929    0.756166   -0.017412
     13          6           0        1.258897   -0.644598    0.042103
     14          6           0        1.241116    0.762903   -0.007837
     15          1           0       -2.499403   -2.488567   -0.048696
     16          1           0       -4.642278   -1.269056   -0.088366
     17          1           0       -4.603932    1.271132    0.063764
     18          1           0       -2.456303    2.475201    0.032139
     19          1           0        0.011944    2.587472    0.006338
     20          1           0        2.479329    2.561958    0.017739
     21          1           0        4.614635    1.264839    0.108681
     22          1           0        4.631552   -1.256567   -0.072468
     23          1           0        2.477024   -2.427664   -0.015717
     24          1           0        0.000711   -2.248666   -0.848926
     25          1           0       -0.021939   -2.308708    0.869118
 ---------------------------------------------------------------------

 SCF Done:  E(RM062X) =  -539.717571261     A.U. after   16 cycles

 Excitation energies and oscillator strengths:

 Excited State   1:      Singlet-A      2.5414 eV  487.85 nm  f=0.0282  <S**2>=0.000
      47 -> 48         0.70464
 This state for optimization and/or second-order correction.
 Total Energy, E(TD-HF/TD-DFT) =  -539.624174814
 Copying the excited state density for this state as the 1-particle RhoCI density.

 The electronic state is 1-A.
 Alpha  occ. eigenvalues --  -10.78476 -10.74106 -10.73933 -10.73106 -10.73077
 Alpha  occ. eigenvalues --  -10.72634 -10.72115 -10.71409 -10.71034 -10.70802
 Alpha  occ. eigenvalues --  -10.70580 -10.70478 -10.70218 -10.69874  -1.15260
 Alpha  occ. eigenvalues --   -1.11267  -1.06122  -1.04327  -1.01184  -0.98772
 Alpha  occ. eigenvalues --   -0.95269  -0.89799  -0.86721  -0.85070  -0.84097
 Alpha  occ. eigenvalues --   -0.77758  -0.74825  -0.74488  -0.70216  -0.69583
 Alpha  occ. eigenvalues --   -0.68398  -0.67669  -0.65801  -0.65436  -0.64818
 Alpha  occ. eigenvalues --   -0.61990  -0.60916  -0.58792  -0.58487  -0.57915
 Alpha  occ. eigenvalues --   -0.57823  -0.56753  -0.53163  -0.51773  -0.46359
 Alpha  occ. eigenvalues --   -0.45269  -0.43615
 Alpha virt. eigenvalues --   -0.26358  -0.15607  -0.14141  -0.13437  -0.11218
 Alpha virt. eigenvalues --   -0.10282  -0.09162  -0.08323  -0.07854  -0.07522
 Alpha virt. eigenvalues --   -0.07343  -0.07187  -0.05697  -0.05671  -0.05517

 Mulliken charges:
               1
     1  C   -0.339180
     2  C   -0.228273
     3  C   -0.403703
     4  C   -0.173663
     5  C   -0.214756
     6  C   -0.361422
     7  C   -0.350055
     8  C   -0.091913
     9  C   -0.585770
    10  C   -0.125486
    11  C   -0.030715
    12  C    0.838632
    13  C   -0.338783
    14  C    0.779791
    15  H    0.227435
    16  H    0.263533
    17  H    0.249178
    18  H    0.191198
    19  H    0.208951
    20  H    0.222182
    21  H    0.246376
    22  H    0.254422
    23  H    0.227151
    24  H    0.260128
    25  H    0.274742
 Sum of Mulliken charges =   1.00000

 Dipole moment (field-independent basis, Debye):
    X=             -0.0212    Y=              0.0892    Z=             -0.0101  Tot=              0.0922
 Quadrupole moment (field-independent basis, Debye-Ang):
   XX=            -33.3744   YY=            -53.5333   ZZ=            -85.1186
   XY=              0.2772   XZ=              0.3931   YZ=              0.5372

 Normal termination of Gaussian 16 at Wed Jul 27 11:50:48 2022.
