 Gaussian 16, Revision C.01,
 Gaussian 16:  ES64L-G16RevC.01  3-Jul-2019

 ---------------------------------------------------------------
 #n M062X/6-311++G(d,p) TD(NStates=1) EmpiricalDispersion=GD3 SP
 ---------------------------------------------------------------

 -----
 SP_-1
 -----
 Symbolic Z-matrix:
 Charge =  1 Multiplicity = 1

                         Standard orientation:
 ---------------------------------------------------------------------
 Center     Atomic      Atomic             Coordinates (Angstroms)
 Number     Number       Type             X           Y           Z
 ---------------------------------------------------------------------
      1          6           0        2.490771   -1.356071    0.000681
      2          6           0        3.700539   -0.677275   -0.005186
      3          6           0        3.684909    0.705485    0.008386
      4          6           0        2.465211    1.410213   -0.003168
      5          6           0       -2.461201    1.405232   -0.003219
      6          6           0       -3.682875    0.721981    0.008596
      7          6           0       -3.702454   -0.666729   -0.005047
      8          6           0       -2.494647   -1.364968    0.000583
      9          6           0       -0.002071   -1.453705    0.015517
     10          6           0        0.002036    1.429404   -0.009934
     11          6           0        1.261140   -0.674860   -0.000153
     12          6           0        1.238544    0.732124   -0.004292
     13          6           0       -1.263069   -0.679263   -0.000201
     14          6           0       -1.236462    0.729651   -0.004317
     15          1           0        2.484636   -2.433198   -0.011228
     16          1           0        4.635082   -1.209089   -0.026563
     17          1           0        4.611117    1.271558    0.029169
     18          1           0        2.471071    2.504639    0.008949
     19          1           0        0.003576    2.510438    0.002022
     20          1           0       -2.463975    2.475672    0.008610
     21          1           0       -4.607491    1.272691    0.029199
     22          1           0       -4.638535   -1.213877   -0.026604
     23          1           0       -2.491599   -2.454107   -0.011470
     24          1           0       -0.001056   -2.156323    0.863757
     25          1           0       -0.005059   -2.135714   -0.855319
 ---------------------------------------------------------------------

 SCF Done:  E(RM062X) =  -539.759507583     A.U. after   15 cycles

 Excitation energies and oscillator strengths:

 Excited State   1:      Singlet-A      2.8215 eV  439.43 nm  f=0.0287  <S**2>=0.000
      47 -> 48         0.70426
 This state for optimization and/or second-order correction.
 Total Energy, E(TD-HF/TD-DFT) =  -539.655819012
 Copying the excited state density for this state as the 1-particle RhoCI density.

 The electronic state is 1-A.
 Alpha  occ. eigenvalues --  -10.77666 -10.73278 -10.73211 -10.72451 -10.72426
 Alpha  occ. eigenvalues --  -10.71544 -10.71196 -10.71119 -10.70984 -10.70893
 Alpha  occ. eigenvalues --  -10.70093 -10.69852 -10.69668 -10.69598  -1.16437
 Alpha  occ. eigenvalues --   -1.12463  -1.06944  -1.05727  -1.01310  -1.00181
 Alpha  occ. eigenvalues --   -0.95778  -0.91055  -0.86419  -0.85893  -0.83818
 Alpha  occ. eigenvalues --   -0.78396  -0.76023  -0.74417  -0.69571  -0.69250
 Alpha  occ. eigenvalues --   -0.68494  -0.68189  -0.68096  -0.64738  -0.64281
 Alpha  occ. eigenvalues --   -0.63064  -0.61867  -0.60010  -0.59679  -0.59070
 Alpha  occ. eigenvalues --   -0.56896  -0.55219  -0.54825  -0.52431  -0.46623
 Alpha  occ. eigenvalues --   -0.46051  -0.44497
 Alpha virt. eigenvalues --   -0.26089  -0.14671  -0.14101  -0.12777  -0.11180
 Alpha virt. eigenvalues --   -0.10087  -0.09230  -0.08002  -0.07956  -0.07476
 Alpha virt. eigenvalues --   -0.07203  -0.07147  -0.05644  -0.05583  -0.05334

 Mulliken charges:
               1
     1  C    0.093829
     2  C   -0.405314
     3  C   -0.443229
     4  C    0.027730
     5  C    0.002692
     6  C   -0.437115
     7  C   -0.403601
     8  C    0.090832
     9  C   -0.340215
    10  C    0.093095
    11  C   -0.636281
    12  C    0.682231
    13  C   -0.639135
    14  C    0.696128
    15  H    0.234946
    16  H    0.255152
    17  H    0.249242
    18  H    0.227005
    19  H    0.189933
    20  H    0.216500
    21  H    0.248580
    22  H    0.257456
    23  H    0.239142
    24  H    0.250767
    25  H    0.249630
 Sum of Mulliken charges =   1.00000

 Dipole moment (field-independent basis, Debye):
    X=             -0.0114    Y=              0.1877    Z=             -0.0035  Tot=              0.1881
 Quadrupole moment (field-independent basis, Debye-Ang):
   XX=            -31.1204   YY=            -56.2594   ZZ=            -84.1416
   XY=              0.0893   XZ=              0.0044   YZ=              0.1809

 Normal termination of Gaussian 16 at Wed Jul 27 10:43:26 2022.
