 Gaussian 16, Revision C.01,
 Gaussian 16:  ES64L-G16RevC.01  3-Jul-2019

 ---------------------------------------------------------------
 #n M062X/6-311++G(d,p) TD(NStates=1) EmpiricalDispersion=GD3 SP
 ---------------------------------------------------------------

 -----
 SP_-4
 -----
 Symbolic Z-matrix:
 Charge =  1 Multiplicity = 1

                         Standard orientation:
 ---------------------------------------------------------------------
 Center     Atomic      Atomic             Coordinates (Angstroms)
 Number     Number       Type             X           Y           Z
 ---------------------------------------------------------------------
      1          6           0        2.484089   -1.392583    0.018244
      2          6           0        3.697170   -0.746634   -0.024198
      3          6           0        3.688043    0.654404    0.005064
      4          6           0        2.472545    1.480444   -0.019992
      5          6           0       -2.454255    1.460663   -0.003376
      6          6           0       -3.679941    0.719373    0.058567
      7          6           0       -3.705857   -0.703184   -0.019969
      8          6           0       -2.501506   -1.425746   -0.014182
      9          6           0       -0.009511   -1.481070    0.062743
     10          6           0        0.009604    1.520404   -0.037386
     11          6           0        1.257924   -0.643269    0.042602
     12          6           0        1.242335    0.764723   -0.011945
     13          6           0       -1.265964   -0.656581   -0.039724
     14          6           0       -1.232753    0.755744   -0.021687
     15          1           0        2.473421   -2.417806   -0.025645
     16          1           0        4.629822   -1.252893   -0.099102
     17          1           0        4.616446    1.262043    0.137268
     18          1           0        2.483333    2.576891    0.027220
     19          1           0        0.015925    2.588509    0.008475
     20          1           0       -2.452632    2.461269    0.039308
     21          1           0       -4.602174    1.270427    0.092578
     22          1           0       -4.644123   -1.269540   -0.115270
     23          1           0       -2.503257   -2.498973   -0.060254
     24          1           0       -0.011469   -2.320132    0.872126
     25          1           0       -0.016832   -2.239921   -0.845268
 ---------------------------------------------------------------------

 SCF Done:  E(RM062X) =  -539.711775740     A.U. after   16 cycles

 Excitation energies and oscillator strengths:

 Excited State   1:      Singlet-A      2.5336 eV  489.35 nm  f=0.0281  <S**2>=0.000
      47 -> 48         0.70459
 This state for optimization and/or second-order correction.
 Total Energy, E(TD-HF/TD-DFT) =  -539.618666264
 Copying the excited state density for this state as the 1-particle RhoCI density.

 The electronic state is 1-A.
 Alpha  occ. eigenvalues --  -10.78471 -10.74171 -10.73924 -10.73132 -10.73092
 Alpha  occ. eigenvalues --  -10.72662 -10.72299 -10.71524 -10.70864 -10.70717
 Alpha  occ. eigenvalues --  -10.70704 -10.70536 -10.70195 -10.69764  -1.15227
 Alpha  occ. eigenvalues --   -1.11254  -1.06117  -1.04320  -1.01153  -0.98759
 Alpha  occ. eigenvalues --   -0.95240  -0.89799  -0.86722  -0.85033  -0.84097
 Alpha  occ. eigenvalues --   -0.77740  -0.74814  -0.74470  -0.70256  -0.69583
 Alpha  occ. eigenvalues --   -0.68372  -0.67649  -0.65779  -0.65434  -0.64755
 Alpha  occ. eigenvalues --   -0.61993  -0.60945  -0.58800  -0.58530  -0.57809
 Alpha  occ. eigenvalues --   -0.57769  -0.56745  -0.53101  -0.51727  -0.46339
 Alpha  occ. eigenvalues --   -0.45235  -0.43588
 Alpha virt. eigenvalues --   -0.26360  -0.15620  -0.14173  -0.13455  -0.11223
 Alpha virt. eigenvalues --   -0.10287  -0.09161  -0.08358  -0.07861  -0.07526
 Alpha virt. eigenvalues --   -0.07366  -0.07168  -0.05713  -0.05674  -0.05524

 Mulliken charges:
               1
     1  C   -0.061218
     2  C   -0.356227
     3  C   -0.353959
     4  C   -0.212363
     5  C   -0.151304
     6  C   -0.417163
     7  C   -0.203878
     8  C   -0.384890
     9  C   -0.580692
    10  C   -0.130121
    11  C   -0.350920
    12  C    0.789425
    13  C   -0.031734
    14  C    0.825512
    15  H    0.224698
    16  H    0.253231
    17  H    0.245687
    18  H    0.226452
    19  H    0.205861
    20  H    0.185308
    21  H    0.249476
    22  H    0.264779
    23  H    0.225333
    24  H    0.279975
    25  H    0.258732
 Sum of Mulliken charges =   1.00000

 Dipole moment (field-independent basis, Debye):
    X=             -0.0282    Y=              0.0870    Z=             -0.0129  Tot=              0.0923
 Quadrupole moment (field-independent basis, Debye-Ang):
   XX=            -33.4027   YY=            -53.5156   ZZ=            -85.1135
   XY=              0.3688   XZ=              0.4204   YZ=              0.7149

 Normal termination of Gaussian 16 at Wed Jul 27 09:33:44 2022.
