 Gaussian 16, Revision C.01,
 Gaussian 16:  ES64L-G16RevC.01  3-Jul-2019

 ---------------------------------------------------------------
 #n M062X/6-311++G(d,p) TD(NStates=1) EmpiricalDispersion=GD3 SP
 ---------------------------------------------------------------

 -----
 SP_-1
 -----
 Symbolic Z-matrix:
 Charge =  1 Multiplicity = 1

                         Standard orientation:
 ---------------------------------------------------------------------
 Center     Atomic      Atomic             Coordinates (Angstroms)
 Number     Number       Type             X           Y           Z
 ---------------------------------------------------------------------
      1          6           0        2.490486   -1.403511    0.015867
      2          6           0        3.700488   -0.730581   -0.006865
      3          6           0        3.685129    0.679463   -0.017525
      4          6           0        2.465592    1.471046   -0.011784
      5          6           0       -2.461022    1.466092    0.005919
      6          6           0       -3.683104    0.695717    0.033441
      7          6           0       -3.702659   -0.719714   -0.004180
      8          6           0       -2.494838   -1.411815   -0.014834
      9          6           0       -0.002376   -1.476845    0.015710
     10          6           0        0.002399    1.517247   -0.009365
     11          6           0        1.260874   -0.647544    0.041132
     12          6           0        1.238695    0.759861    0.000397
     13          6           0       -1.262883   -0.650878   -0.040405
     14          6           0       -1.236301    0.757612   -0.008822
     15          1           0        2.484343   -2.447644    0.004658
     16          1           0        4.635062   -1.262548   -0.019330
     17          1           0        4.611038    1.268941    0.051035
     18          1           0        2.471461    2.532478   -0.000375
     19          1           0        0.003979    2.586285    0.002106
     20          1           0       -2.463789    2.503539    0.016995
     21          1           0       -4.607469    1.271032    0.006470
     22          1           0       -4.638638   -1.266722   -0.034304
     23          1           0       -2.491799   -2.467961   -0.026126
     24          1           0       -0.006812   -2.287177    0.862911
     25          1           0       -0.000259   -2.267132   -0.856164
 ---------------------------------------------------------------------

 SCF Done:  E(RM062X) =  -539.723964911     A.U. after   16 cycles

 Excitation energies and oscillator strengths:

 Excited State   1:      Singlet-A      2.5495 eV  486.30 nm  f=0.0283  <S**2>=0.000
      47 -> 48         0.70468
 This state for optimization and/or second-order correction.
 Total Energy, E(TD-HF/TD-DFT) =  -539.630271771
 Copying the excited state density for this state as the 1-particle RhoCI density.

 The electronic state is 1-A.
 Alpha  occ. eigenvalues --  -10.78479 -10.74018 -10.73958 -10.73073 -10.73063
 Alpha  occ. eigenvalues --  -10.72602 -10.71746 -10.71385 -10.71191 -10.70989
 Alpha  occ. eigenvalues --  -10.70370 -10.70337 -10.70283 -10.70101  -1.15299
 Alpha  occ. eigenvalues --   -1.11282  -1.06127  -1.04338  -1.01220  -0.98788
 Alpha  occ. eigenvalues --   -0.95302  -0.89799  -0.86721  -0.85114  -0.84095
 Alpha  occ. eigenvalues --   -0.77778  -0.74842  -0.74507  -0.70165  -0.69587
 Alpha  occ. eigenvalues --   -0.68429  -0.67691  -0.65826  -0.65430  -0.64901
 Alpha  occ. eigenvalues --   -0.61989  -0.60894  -0.58779  -0.58368  -0.58132
 Alpha  occ. eigenvalues --   -0.57844  -0.56760  -0.53232  -0.51825  -0.46382
 Alpha  occ. eigenvalues --   -0.45308  -0.43642
 Alpha virt. eigenvalues --   -0.26355  -0.15595  -0.14108  -0.13415  -0.11212
 Alpha virt. eigenvalues --   -0.10276  -0.09162  -0.08285  -0.07846  -0.07519
 Alpha virt. eigenvalues --   -0.07304  -0.07217  -0.05683  -0.05667  -0.05505

 Mulliken charges:
               1
     1  C   -0.153190
     2  C   -0.321289
     3  C   -0.373242
     4  C   -0.217049
     5  C   -0.209079
     6  C   -0.385050
     7  C   -0.277680
     8  C   -0.239975
     9  C   -0.547320
    10  C   -0.113897
    11  C   -0.263991
    12  C    0.786914
    13  C   -0.141903
    14  C    0.823782
    15  H    0.229629
    16  H    0.257340
    17  H    0.247574
    18  H    0.212793
    19  H    0.212832
    20  H    0.202362
    21  H    0.248516
    22  H    0.260583
    23  H    0.229283
    24  H    0.268385
    25  H    0.263671
 Sum of Mulliken charges =   1.00000

 Dipole moment (field-independent basis, Debye):
    X=             -0.0070    Y=              0.0912    Z=             -0.0035  Tot=              0.0915
 Quadrupole moment (field-independent basis, Debye-Ang):
   XX=            -33.3439   YY=            -53.5529   ZZ=            -85.1242
   XY=              0.0918   XZ=              0.4013   YZ=              0.1794

 Normal termination of Gaussian 16 at Wed Jul 27 10:36:36 2022.
