 Gaussian 16, Revision C.01,
 Gaussian 16:  ES64L-G16RevC.01  3-Jul-2019

 ---------------------------------------------------------------
 #n M062X/6-311++G(d,p) TD(NStates=1) EmpiricalDispersion=GD3 SP
 ---------------------------------------------------------------

 -----
 SP_-2
 -----
 Symbolic Z-matrix:
 Charge =  1 Multiplicity = 1

                         Standard orientation:
 ---------------------------------------------------------------------
 Center     Atomic      Atomic             Coordinates (Angstroms)
 Number     Number       Type             X           Y           Z
 ---------------------------------------------------------------------
      1          6           0        2.488337   -1.399662    0.016546
      2          6           0        3.699390   -0.735966   -0.012549
      3          6           0        3.686117    0.671199   -0.009831
      4          6           0        2.467896    1.473919   -0.014608
      5          6           0       -2.458756    1.464013    0.002888
      6          6           0       -3.682066    0.703701    0.041659
      7          6           0       -3.703733   -0.714233   -0.009539
      8          6           0       -2.497042   -1.416265   -0.014488
      9          6           0       -0.004752   -1.477690    0.031410
     10          6           0        0.004799    1.517879   -0.018722
     11          6           0        1.259883   -0.646021    0.041571
     12          6           0        1.239902    0.761284   -0.003763
     13          6           0       -1.263900   -0.652686   -0.040119
     14          6           0       -1.235113    0.756788   -0.013081
     15          1           0        2.480668   -2.437608   -0.005701
     16          1           0        4.633299   -1.259779   -0.046029
     17          1           0        4.612834    1.267145    0.079782
     18          1           0        2.475369    2.547156    0.008460
     19          1           0        0.007959    2.586730    0.004218
     20          1           0       -2.460024    2.489290    0.024785
     21          1           0       -4.605697    1.271327    0.035212
     22          1           0       -4.640450   -1.268123   -0.061221
     23          1           0       -2.495581   -2.478232   -0.037239
     24          1           0       -0.008355   -2.297778    0.866115
     25          1           0       -0.005789   -2.257681   -0.852634
 ---------------------------------------------------------------------

 SCF Done:  E(RM062X) =  -539.721523773     A.U. after   16 cycles

 Excitation energies and oscillator strengths:

 Excited State   1:      Singlet-A      2.5463 eV  486.92 nm  f=0.0282  <S**2>=0.000
      47 -> 48         0.70466
 This state for optimization and/or second-order correction.
 Total Energy, E(TD-HF/TD-DFT) =  -539.627949189
 Copying the excited state density for this state as the 1-particle RhoCI density.

 The electronic state is 1-A.
 Alpha  occ. eigenvalues --  -10.78478 -10.74060 -10.73940 -10.73087 -10.73067
 Alpha  occ. eigenvalues --  -10.72614 -10.71930 -10.71298 -10.71208 -10.70893
 Alpha  occ. eigenvalues --  -10.70458 -10.70422 -10.70248 -10.69987  -1.15284
 Alpha  occ. eigenvalues --   -1.11276  -1.06125  -1.04334  -1.01206  -0.98782
 Alpha  occ. eigenvalues --   -0.95289  -0.89799  -0.86721  -0.85098  -0.84096
 Alpha  occ. eigenvalues --   -0.77771  -0.74836  -0.74500  -0.70185  -0.69585
 Alpha  occ. eigenvalues --   -0.68417  -0.67683  -0.65816  -0.65433  -0.64870
 Alpha  occ. eigenvalues --   -0.61990  -0.60905  -0.58783  -0.58434  -0.58025
 Alpha  occ. eigenvalues --   -0.57836  -0.56758  -0.53206  -0.51806  -0.46374
 Alpha  occ. eigenvalues --   -0.45294  -0.43632
 Alpha virt. eigenvalues --   -0.26356  -0.15600  -0.14121  -0.13423  -0.11214
 Alpha virt. eigenvalues --   -0.10278  -0.09162  -0.08300  -0.07849  -0.07520
 Alpha virt. eigenvalues --   -0.07321  -0.07203  -0.05689  -0.05668  -0.05509

 Mulliken charges:
               1
     1  C   -0.116294
     2  C   -0.336807
     3  C   -0.367398
     4  C   -0.213419
     5  C   -0.192939
     6  C   -0.393541
     7  C   -0.253639
     8  C   -0.287478
     9  C   -0.564756
    10  C   -0.120670
    11  C   -0.301124
    12  C    0.773732
    13  C   -0.086112
    14  C    0.830207
    15  H    0.228583
    16  H    0.255818
    17  H    0.247000
    18  H    0.217734
    19  H    0.211211
    20  H    0.196927
    21  H    0.248881
    22  H    0.262131
    23  H    0.228095
    24  H    0.271803
    25  H    0.262055
 Sum of Mulliken charges =   1.00000

 Dipole moment (field-independent basis, Debye):
    X=             -0.0140    Y=              0.0904    Z=             -0.0069  Tot=              0.0917
 Quadrupole moment (field-independent basis, Debye-Ang):
   XX=            -33.3550   YY=            -53.5457   ZZ=            -85.1221
   XY=              0.1837   XZ=              0.4065   YZ=              0.3584

 Normal termination of Gaussian 16 at Wed Jul 27 10:15:50 2022.
