 Gaussian 16, Revision C.01,
 Gaussian 16:  ES64L-G16RevC.01  3-Jul-2019

 ---------------------------------------------------------------
 #n M062X/6-311++G(d,p) TD(NStates=1) EmpiricalDispersion=GD3 SP
 ---------------------------------------------------------------

 ----
 SP_4
 ----
 Symbolic Z-matrix:
 Charge =  1 Multiplicity = 1

                         Standard orientation:
 ---------------------------------------------------------------------
 Center     Atomic      Atomic             Coordinates (Angstroms)
 Number     Number       Type             X           Y           Z
 ---------------------------------------------------------------------
      1          6           0       -2.500288   -1.364536    0.006696
      2          6           0       -3.705117   -0.633202   -0.019607
      3          6           0       -3.679723    0.754822    0.027508
      4          6           0       -2.455639    1.379596   -0.016743
      5          6           0        2.470975    1.399477   -0.009458
      6          6           0        3.687873    0.688491    0.041835
      7          6           0        3.697782   -0.674983   -0.020180
      8          6           0        2.485384   -1.328228   -0.001358
      9          6           0       -0.007896   -1.450357    0.061712
     10          6           0        0.007684    1.403475   -0.040459
     11          6           0       -1.265955   -0.696544    0.011572
     12          6           0       -1.233580    0.718089   -0.016128
     13          6           0        1.258337   -0.677500   -0.014499
     14          6           0        1.241515    0.728254   -0.018505
     15          1           0       -2.501988   -2.481630   -0.043369
     16          1           0       -4.643764   -1.200187   -0.104274
     17          1           0       -4.602066    1.270554    0.124369
     18          1           0       -2.454049    2.424074    0.029807
     19          1           0        0.013797    2.487483    0.007996
     20          1           0        2.481706    2.539794    0.041714
     21          1           0        4.616648    1.267239    0.110071
     22          1           0        4.630104   -1.180318   -0.107547
     23          1           0        2.474755   -2.397328   -0.049083
     24          1           0       -0.005312   -2.063883   -0.840613
     25          1           0       -0.017933   -2.146915    0.876609
 ---------------------------------------------------------------------

 SCF Done:  E(RM062X) =  -539.748280684     A.U. after   15 cycles

 Excitation energies and oscillator strengths:

 Excited State   1:      Singlet-A      2.8860 eV  429.61 nm  f=0.0285  <S**2>=0.000
      47 -> 48         0.70402
 This state for optimization and/or second-order correction.
 Total Energy, E(TD-HF/TD-DFT) =  -539.642222660
 Copying the excited state density for this state as the 1-particle RhoCI density.

 The electronic state is 1-A.
 Alpha  occ. eigenvalues --  -10.77387 -10.73200 -10.72938 -10.72345 -10.72229
 Alpha  occ. eigenvalues --  -10.72016 -10.71483 -10.70657 -10.70548 -10.70524
 Alpha  occ. eigenvalues --  -10.70394 -10.69600 -10.69432 -10.69345  -1.16750
 Alpha  occ. eigenvalues --   -1.12837  -1.07299  -1.06101  -1.01322  -1.00582
 Alpha  occ. eigenvalues --   -0.95897  -0.91471  -0.86324  -0.86046  -0.83747
 Alpha  occ. eigenvalues --   -0.78592  -0.76331  -0.74358  -0.70051  -0.69203
 Alpha  occ. eigenvalues --   -0.68949  -0.68208  -0.68053  -0.64609  -0.63920
 Alpha  occ. eigenvalues --   -0.63512  -0.61821  -0.60521  -0.59989  -0.59100
 Alpha  occ. eigenvalues --   -0.56516  -0.55204  -0.54614  -0.52531  -0.46837
 Alpha  occ. eigenvalues --   -0.46053  -0.44703
 Alpha virt. eigenvalues --   -0.26016  -0.14383  -0.14220  -0.12599  -0.11185
 Alpha virt. eigenvalues --   -0.10044  -0.09257  -0.08133  -0.07924  -0.07470
 Alpha virt. eigenvalues --   -0.07185  -0.07120  -0.05647  -0.05584  -0.05305

 Mulliken charges:
               1
     1  C    0.069001
     2  C   -0.389999
     3  C   -0.433218
     4  C    0.028935
     5  C    0.113659
     6  C   -0.454692
     7  C   -0.372439
     8  C    0.085615
     9  C   -0.370449
    10  C    0.092140
    11  C   -0.662195
    12  C    0.672552
    13  C   -0.697190
    14  C    0.725524
    15  H    0.245035
    16  H    0.259930
    17  H    0.244690
    18  H    0.202355
    19  H    0.178389
    20  H    0.241853
    21  H    0.248257
    22  H    0.252298
    23  H    0.225210
    24  H    0.244780
    25  H    0.249959
 Sum of Mulliken charges =   1.00000

 Dipole moment (field-independent basis, Debye):
    X=             -0.0509    Y=              0.2158    Z=             -0.0119  Tot=              0.2220
 Quadrupole moment (field-independent basis, Debye-Ang):
   XX=            -30.4072   YY=            -57.1246   ZZ=            -83.8137
   XY=              0.3536   XZ=             -0.1201   YZ=              0.7220

 Normal termination of Gaussian 16 at Wed Jul 27 12:20:18 2022.
