 Gaussian 16, Revision C.01,
 Gaussian 16:  ES64L-G16RevC.01  3-Jul-2019

 ---------------------------------------------------------------
 #n M062X/6-311++G(d,p) TD(NStates=1) EmpiricalDispersion=GD3 SP
 ---------------------------------------------------------------

 -----
 SP_-2
 -----
 Symbolic Z-matrix:
 Charge =  1 Multiplicity = 1

                         Standard orientation:
 ---------------------------------------------------------------------
 Center     Atomic      Atomic             Coordinates (Angstroms)
 Number     Number       Type             X           Y           Z
 ---------------------------------------------------------------------
      1          6           0        2.488524   -1.383754    0.011520
      2          6           0        3.699435   -0.718142   -0.011864
      3          6           0        3.685995    0.679835   -0.001025
      4          6           0        2.467650    1.453655   -0.011816
      5          6           0       -2.458888    1.443724   -0.000237
      6          6           0       -3.681939    0.712484    0.033556
      7          6           0       -3.703603   -0.696631   -0.009698
      8          6           0       -2.496907   -1.400752   -0.009318
      9          6           0       -0.004547   -1.469984    0.031280
     10          6           0        0.004554    1.488608   -0.019091
     11          6           0        1.260035   -0.654951    0.027637
     12          6           0        1.239799    0.752080   -0.005352
     13          6           0       -1.263999   -0.662320   -0.026897
     14          6           0       -1.235221    0.747433   -0.011607
     15          1           0        2.480860   -2.432692   -0.011196
     16          1           0        4.633319   -1.241849   -0.048368
     17          1           0        4.612880    1.268168    0.072636
     18          1           0        2.475116    2.537884    0.011730
     19          1           0        0.007687    2.561453    0.004170
     20          1           0       -2.460162    2.479992    0.022144
     21          1           0       -4.605707    1.271710    0.042929
     22          1           0       -4.640384   -1.250609   -0.058584
     23          1           0       -2.495440   -2.473711   -0.032562
     24          1           0       -0.006271   -2.254264    0.866659
     25          1           0       -0.007225   -2.213792   -0.852083
 ---------------------------------------------------------------------

 SCF Done:  E(RM062X) =  -539.739597082     A.U. after   16 cycles

 Excitation energies and oscillator strengths:

 Excited State   1:      Singlet-A      2.6400 eV  469.63 nm  f=0.0285  <S**2>=0.000
      47 -> 48         0.70454
 This state for optimization and/or second-order correction.
 Total Energy, E(TD-HF/TD-DFT) =  -539.642577758
 Copying the excited state density for this state as the 1-particle RhoCI density.

 The electronic state is 1-A.
 Alpha  occ. eigenvalues --  -10.78206 -10.73811 -10.73685 -10.72876 -10.72845
 Alpha  occ. eigenvalues --  -10.72071 -10.71852 -10.71272 -10.71138 -10.70850
 Alpha  occ. eigenvalues --  -10.70374 -10.70174 -10.70011 -10.69898  -1.15657
 Alpha  occ. eigenvalues --   -1.11661  -1.06363  -1.04814  -1.01234  -0.99242
 Alpha  occ. eigenvalues --   -0.95441  -0.90210  -0.86625  -0.85327  -0.84019
 Alpha  occ. eigenvalues --   -0.77954  -0.75235  -0.74485  -0.69862  -0.69424
 Alpha  occ. eigenvalues --   -0.68318  -0.68042  -0.66513  -0.65128  -0.64877
 Alpha  occ. eigenvalues --   -0.61977  -0.61614  -0.59091  -0.58954  -0.58378
 Alpha  occ. eigenvalues --   -0.57545  -0.56303  -0.53742  -0.52004  -0.46403
 Alpha  occ. eigenvalues --   -0.45586  -0.43919
 Alpha virt. eigenvalues --   -0.26259  -0.15297  -0.14073  -0.13235  -0.11197
 Alpha virt. eigenvalues --   -0.10212  -0.09183  -0.08167  -0.07886  -0.07507
 Alpha virt. eigenvalues --   -0.07275  -0.07196  -0.05668  -0.05642  -0.05451

 Mulliken charges:
               1
     1  C   -0.141170
     2  C   -0.335356
     3  C   -0.392796
     4  C   -0.158329
     5  C   -0.144671
     6  C   -0.417278
     7  C   -0.261814
     8  C   -0.273727
     9  C   -0.514121
    10  C   -0.102076
    11  C   -0.261587
    12  C    0.750326
    13  C   -0.105910
    14  C    0.733943
    15  H    0.227849
    16  H    0.255438
    17  H    0.249502
    18  H    0.222443
    19  H    0.202617
    20  H    0.201444
    21  H    0.250325
    22  H    0.261336
    23  H    0.229543
    24  H    0.265310
    25  H    0.258763
 Sum of Mulliken charges =   1.00000

 Dipole moment (field-independent basis, Debye):
    X=             -0.0175    Y=              0.1226    Z=             -0.0069  Tot=              0.1240
 Quadrupole moment (field-independent basis, Debye-Ang):
   XX=            -32.6255   YY=            -54.4466   ZZ=            -84.7898
   XY=              0.1823   XZ=              0.2727   YZ=              0.3596

 Normal termination of Gaussian 16 at Wed Jul 27 10:18:08 2022.
