 Gaussian 16, Revision C.01,
 Gaussian 16:  ES64L-G16RevC.01  3-Jul-2019

 ---------------------------------------------------------------
 #n M062X/6-311++G(d,p) TD(NStates=1) EmpiricalDispersion=GD3 SP
 ---------------------------------------------------------------

 ----
 SP_3
 ----
 Symbolic Z-matrix:
 Charge =  1 Multiplicity = 1

                         Standard orientation:
 ---------------------------------------------------------------------
 Center     Atomic      Atomic             Coordinates (Angstroms)
 Number     Number       Type             X           Y           Z
 ---------------------------------------------------------------------
      1          6           0       -2.499050   -1.405498   -0.009150
      2          6           0       -3.704626   -0.691175   -0.014949
      3          6           0       -3.680884    0.720405    0.041991
      4          6           0       -2.456725    1.441920   -0.003503
      5          6           0        2.469876    1.456800   -0.014555
      6          6           0        3.686969    0.671432    0.006795
      7          6           0        3.698372   -0.723446   -0.017389
      8          6           0        2.486469   -1.380021    0.012437
      9          6           0       -0.006826   -1.471404    0.046895
     10          6           0        0.006835    1.489676   -0.028618
     11          6           0       -1.265013   -0.664393   -0.026895
     12          6           0       -1.234089    0.746780   -0.015968
     13          6           0        1.259063   -0.653349    0.027997
     14          6           0        1.240961    0.753743   -0.009454
     15          1           0       -2.499177   -2.484141   -0.044231
     16          1           0       -4.642190   -1.251638   -0.085657
     17          1           0       -4.603933    1.271340    0.071621
     18          1           0       -2.456537    2.465897    0.029648
     19          1           0        0.011535    2.562203    0.006266
     20          1           0        2.478978    2.552692    0.021172
     21          1           0        4.614690    1.266007    0.101681
     22          1           0        4.631594   -1.238525   -0.074729
     23          1           0        2.477300   -2.422646   -0.021410
     24          1           0       -0.000563   -2.204700   -0.848117
     25          1           0       -0.019692   -2.265306    0.869950
 ---------------------------------------------------------------------

 SCF Done:  E(RM062X) =  -539.735754881     A.U. after   16 cycles

 Excitation energies and oscillator strengths:

 Excited State   1:      Singlet-A      2.6349 eV  470.55 nm  f=0.0284  <S**2>=0.000
      47 -> 48         0.70452
 This state for optimization and/or second-order correction.
 Total Energy, E(TD-HF/TD-DFT) =  -539.638925144
 Copying the excited state density for this state as the 1-particle RhoCI density.

 The electronic state is 1-A.
 Alpha  occ. eigenvalues --  -10.78203 -10.73859 -10.73676 -10.72897 -10.72852
 Alpha  occ. eigenvalues --  -10.72091 -10.72035 -10.71387 -10.70966 -10.70755
 Alpha  occ. eigenvalues --  -10.70497 -10.70229 -10.69984 -10.69784  -1.15632
 Alpha  occ. eigenvalues --   -1.11650  -1.06360  -1.04806  -1.01214  -0.99230
 Alpha  occ. eigenvalues --   -0.95421  -0.90209  -0.86624  -0.85295  -0.84023
 Alpha  occ. eigenvalues --   -0.77941  -0.75218  -0.74479  -0.69892  -0.69441
 Alpha  occ. eigenvalues --   -0.68297  -0.68011  -0.66497  -0.65138  -0.64823
 Alpha  occ. eigenvalues --   -0.61987  -0.61614  -0.59116  -0.58977  -0.58271
 Alpha  occ. eigenvalues --   -0.57534  -0.56306  -0.53696  -0.51970  -0.46391
 Alpha  occ. eigenvalues --   -0.45558  -0.43901
 Alpha virt. eigenvalues --   -0.26260  -0.15305  -0.14095  -0.13248  -0.11201
 Alpha virt. eigenvalues --   -0.10215  -0.09183  -0.08193  -0.07889  -0.07509
 Alpha virt. eigenvalues --   -0.07295  -0.07182  -0.05672  -0.05648  -0.05458

 Mulliken charges:
               1
     1  C   -0.316086
     2  C   -0.236426
     3  C   -0.426238
     4  C   -0.132448
     5  C   -0.161843
     6  C   -0.386867
     7  C   -0.347397
     8  C   -0.119715
     9  C   -0.531717
    10  C   -0.101991
    11  C   -0.061144
    12  C    0.736017
    13  C   -0.306140
    14  C    0.772767
    15  H    0.229379
    16  H    0.262662
    17  H    0.250370
    18  H    0.195503
    19  H    0.200506
    20  H    0.226614
    21  H    0.249143
    22  H    0.254071
    23  H    0.226033
    24  H    0.257426
    25  H    0.267519
 Sum of Mulliken charges =   1.00000

 Dipole moment (field-independent basis, Debye):
    X=             -0.0265    Y=              0.1214    Z=             -0.0100  Tot=              0.1246
 Quadrupole moment (field-independent basis, Debye-Ang):
   XX=            -32.6439   YY=            -54.4340   ZZ=            -84.7865
   XY=              0.2751   XZ=              0.2598   YZ=              0.5390

 Normal termination of Gaussian 16 at Wed Jul 27 11:53:04 2022.
