 Gaussian 16, Revision C.01,
 Gaussian 16:  ES64L-G16RevC.01  3-Jul-2019

 ---------------------------------------------------------------
 #n M062X/6-311++G(d,p) TD(NStates=1) EmpiricalDispersion=GD3 SP
 ---------------------------------------------------------------

 ----
 SP_2
 ----
 Symbolic Z-matrix:
 Charge =  1 Multiplicity = 1

                         Standard orientation:
 ---------------------------------------------------------------------
 Center     Atomic      Atomic             Coordinates (Angstroms)
 Number     Number       Type             X           Y           Z
 ---------------------------------------------------------------------
      1          6           0       -2.496907   -1.400750   -0.009373
      2          6           0       -3.703603   -0.696629   -0.009780
      3          6           0       -3.681939    0.712486    0.033474
      4          6           0       -2.458887    1.443726   -0.000292
      5          6           0        2.467652    1.453653   -0.011762
      6          6           0        3.685996    0.679833   -0.000944
      7          6           0        3.699435   -0.718144   -0.011781
      8          6           0        2.488522   -1.383755    0.011576
      9          6           0       -0.004549   -1.469984    0.031280
     10          6           0        0.004555    1.488608   -0.019091
     11          6           0       -1.263999   -0.662319   -0.026925
     12          6           0       -1.235220    0.747434   -0.011635
     13          6           0        1.260034   -0.654952    0.027665
     14          6           0        1.239800    0.752079   -0.005325
     15          1           0       -2.495441   -2.473709   -0.032617
     16          1           0       -4.640383   -1.250606   -0.058687
     17          1           0       -4.605707    1.271714    0.042827
     18          1           0       -2.460161    2.479994    0.022089
     19          1           0        0.007688    2.561453    0.004169
     20          1           0        2.475118    2.537882    0.011784
     21          1           0        4.612879    1.268165    0.072738
     22          1           0        4.633319   -1.241852   -0.048265
     23          1           0        2.480859   -2.432693   -0.011140
     24          1           0        0.000792   -2.213816   -0.852050
     25          1           0       -0.014292   -2.254239    0.866627
 ---------------------------------------------------------------------

 SCF Done:  E(RM062X) =  -539.739647629     A.U. after   16 cycles

 Excitation energies and oscillator strengths:

 Excited State   1:      Singlet-A      2.6402 eV  469.59 nm  f=0.0285  <S**2>=0.000
      47 -> 48         0.70454
 This state for optimization and/or second-order correction.
 Total Energy, E(TD-HF/TD-DFT) =  -539.642620612
 Copying the excited state density for this state as the 1-particle RhoCI density.

 The electronic state is 1-A.
 Alpha  occ. eigenvalues --  -10.78206 -10.73809 -10.73686 -10.72875 -10.72845
 Alpha  occ. eigenvalues --  -10.72071 -10.71852 -10.71272 -10.71138 -10.70850
 Alpha  occ. eigenvalues --  -10.70373 -10.70174 -10.70011 -10.69898  -1.15657
 Alpha  occ. eigenvalues --   -1.11661  -1.06363  -1.04814  -1.01234  -0.99242
 Alpha  occ. eigenvalues --   -0.95441  -0.90210  -0.86625  -0.85327  -0.84019
 Alpha  occ. eigenvalues --   -0.77954  -0.75234  -0.74485  -0.69862  -0.69424
 Alpha  occ. eigenvalues --   -0.68318  -0.68041  -0.66513  -0.65128  -0.64876
 Alpha  occ. eigenvalues --   -0.61976  -0.61612  -0.59092  -0.58955  -0.58380
 Alpha  occ. eigenvalues --   -0.57545  -0.56303  -0.53743  -0.52004  -0.46403
 Alpha  occ. eigenvalues --   -0.45586  -0.43920
 Alpha virt. eigenvalues --   -0.26259  -0.15297  -0.14073  -0.13235  -0.11197
 Alpha virt. eigenvalues --   -0.10212  -0.09183  -0.08166  -0.07886  -0.07507
 Alpha virt. eigenvalues --   -0.07275  -0.07197  -0.05667  -0.05642  -0.05451

 Mulliken charges:
               1
     1  C   -0.275100
     2  C   -0.261334
     3  C   -0.416847
     4  C   -0.145447
     5  C   -0.159393
     6  C   -0.393104
     7  C   -0.336633
     8  C   -0.144525
     9  C   -0.516996
    10  C   -0.101329
    11  C   -0.096427
    12  C    0.739546
    13  C   -0.268450
    14  C    0.751691
    15  H    0.229964
    16  H    0.261334
    17  H    0.250317
    18  H    0.201415
    19  H    0.202686
    20  H    0.222382
    21  H    0.249507
    22  H    0.255427
    23  H    0.227961
    24  H    0.258531
    25  H    0.264826
 Sum of Mulliken charges =   1.00000

 Dipole moment (field-independent basis, Debye):
    X=             -0.0176    Y=              0.1227    Z=             -0.0069  Tot=              0.1241
 Quadrupole moment (field-independent basis, Debye-Ang):
   XX=            -32.6254   YY=            -54.4466   ZZ=            -84.7898
   XY=              0.1828   XZ=              0.2594   YZ=              0.3598

 Normal termination of Gaussian 16 at Wed Jul 27 11:32:31 2022.
