 Gaussian 16, Revision C.01,
 Gaussian 16:  ES64L-G16RevC.01  3-Jul-2019

 ----------------------------------------------------------------------
 #n wB97XD/6-311++G(d,p) Opt=(CalcAll) IOp(2/15=4,2/16=2) Geom=AllCheck
 ----------------------------------------------------------------------

 Structure from the checkpoint file:  "check_gr2.chk"
 -----
 Title
 -----
 Charge =  1 Multiplicity = 1

 SCF Done:  E(RwB97XD) =  -539.810747041     A.U. after   15 cycles
 SCF Done:  E(RwB97XD) =  -539.810777423     A.U. after   11 cycles
 Optimization completed.
    -- Stationary point found.

                         Standard orientation:
 ---------------------------------------------------------------------
 Center     Atomic      Atomic             Coordinates (Angstroms)
 Number     Number       Type             X           Y           Z
 ---------------------------------------------------------------------
      1          6           0        0.000000    3.653682   -0.782977
      2          6           0        0.000000    2.446124   -1.434973
      3          6           0        0.000000    1.239937   -0.690522
      4          6           0        0.000000    1.272562    0.728122
      5          6           0        0.000000    2.505954    1.364494
      6          6           0        0.000000    3.676867    0.618709
      7          6           0        0.000000   -0.000000   -1.347057
      8          6           0        0.000000    0.000000    1.512144
      9          6           0       -0.000000   -1.272562    0.728122
     10          6           0       -0.000000   -1.239937   -0.690522
     11          6           0       -0.000000   -2.446124   -1.434973
     12          1           0        0.000000   -2.401038   -2.518515
     13          6           0       -0.000000   -3.653682   -0.782977
     14          6           0       -0.000000   -3.676867    0.618709
     15          6           0       -0.000000   -2.505954    1.364494
     16          1           0        0.000000   -0.000000   -2.435134
     17          1           0        0.000000    4.581503   -1.340557
     18          1           0        0.000000    2.401038   -2.518515
     19          1           0        0.000000    2.556651    2.447614
     20          1           0        0.000000    4.631249    1.133192
     21          1           0        0.868890   -0.000000    2.183456
     22          1           0       -0.000000   -4.581503   -1.340557
     23          1           0       -0.000000   -4.631249    1.133192
     24          1           0       -0.000000   -2.556651    2.447614
     25          1           0       -0.868890    0.000000    2.183456
 ---------------------------------------------------------------------

 The electronic state is 1-A1.
 Alpha  occ. eigenvalues --  -10.51016 -10.47865 -10.47864 -10.46703 -10.46702
 Alpha  occ. eigenvalues --  -10.45806 -10.45729 -10.45729 -10.45690 -10.45690
 Alpha  occ. eigenvalues --  -10.44313 -10.44313 -10.44000 -10.44000  -1.16054
 Alpha  occ. eigenvalues --   -1.12409  -1.07064  -1.06004  -1.01696  -1.00769
 Alpha  occ. eigenvalues --   -0.96830  -0.91559  -0.87423  -0.87332  -0.84908
 Alpha  occ. eigenvalues --   -0.79781  -0.77724  -0.76010  -0.71380  -0.70885
 Alpha  occ. eigenvalues --   -0.70200  -0.70180  -0.69886  -0.66883  -0.66030
 Alpha  occ. eigenvalues --   -0.65363  -0.63925  -0.62355  -0.61846  -0.61286
 Alpha  occ. eigenvalues --   -0.59072  -0.57402  -0.57305  -0.54648  -0.49627
 Alpha  occ. eigenvalues --   -0.47653  -0.47638
 Alpha virt. eigenvalues --   -0.22107  -0.10847  -0.10592  -0.08959  -0.06544
 Alpha virt. eigenvalues --   -0.05578  -0.04924  -0.03764  -0.03592  -0.03246
 Alpha virt. eigenvalues --   -0.02664  -0.02536  -0.01442  -0.01418  -0.00510

 Mulliken charges:
               1
     1  C   -0.447600
     2  C    0.068325
     3  C    0.534137
     4  C   -0.544675
     5  C    0.161489
     6  C   -0.363425
     7  C   -0.119737
     8  C   -0.466620
     9  C   -0.544675
    10  C    0.534137
    11  C    0.068325
    12  H    0.241019
    13  C   -0.447600
    14  C   -0.363425
    15  C    0.161489
    16  H    0.182275
    17  H    0.265531
    18  H    0.241019
    19  H    0.250225
    20  H    0.272698
    21  H    0.264316
    22  H    0.265531
    23  H    0.272698
    24  H    0.250225
    25  H    0.264316
 Sum of Mulliken charges =   1.00000

 Dipole moment (field-independent basis, Debye):
    X=             -0.0000    Y=             -0.0000    Z=             -0.0912  Tot=              0.0912
 Quadrupole moment (field-independent basis, Debye-Ang):
   XX=            -83.1305   YY=            -30.7772   ZZ=            -55.8453
   XY=              0.0000   XZ=             -0.0000   YZ=              0.0000

  Exact polarizability:      74.673      -0.000     283.886      -0.000      -0.000     153.106
 Approx polarizability:      95.508       0.000     277.116      -0.000       0.000     195.008

                      1                      2                      3
                     B1                     A2                     B1
 Frequencies --     53.9454               103.4487               182.2023
 Red. masses --      3.4032                 3.8796                 2.1176
 Frc consts  --      0.0058                 0.0245                 0.0414
 IR Inten    --      0.0360                 0.0000                 6.7404

                      4                      5                      6
                     A2                     A1                     B1
 Frequencies --    223.3843               236.7178               322.0875
 Red. masses --      4.6457                 4.3726                 2.7319
 Frc consts  --      0.1366                 0.1444                 0.1670
 IR Inten    --      0.0000                 0.2572                10.7785

                      7                      8                      9
                     A1                     B2                     B1
 Frequencies --    385.7643               386.6745               417.0267
 Red. masses --      6.8124                 4.8020                 2.6632
 Frc consts  --      0.5973                 0.4230                 0.2729
 IR Inten    --      0.1737                 4.6482                10.4981

                     10                     11                     12
                     A2                     A2                     B1
 Frequencies --    449.2878               493.6511               518.1767
 Red. masses --      3.1807                 3.1398                 2.6774
 Frc consts  --      0.3783                 0.4508                 0.4236
 IR Inten    --      0.0000                 0.0000                 1.1671

                     13                     14                     15
                     B2                     A1                     B2
 Frequencies --    536.2696               608.6921               622.0958
 Red. masses --      5.8348                 6.4112                 6.5868
 Frc consts  --      0.9886                 1.3995                 1.5019
 IR Inten    --     43.5152                 3.7336                22.7478

                     16                     17                     18
                     B1                     A1                     A2
 Frequencies --    668.4711               678.6875               731.7230
 Red. masses --      2.4835                 6.0375                 3.1392
 Frc consts  --      0.6539                 1.6385                 0.9903
 IR Inten    --     17.8727                 0.1539                 0.0000

                     19                     20                     21
                     A1                     B1                     A2
 Frequencies --    755.7679               790.8447               799.6448
 Red. masses --      5.3461                 1.2949                 1.3782
 Frc consts  --      1.7991                 0.4772                 0.5192
 IR Inten    --      0.0027               102.0017                 0.0000

                     22                     23                     24
                     B2                     B1                     A1
 Frequencies --    827.8906               868.7986               906.2217
 Red. masses --      3.3695                 1.6367                 5.5986
 Frc consts  --      1.3607                 0.7279                 2.7089
 IR Inten    --      3.6417                 1.5932                 0.2275

                     25                     26                     27
                     A2                     B2                     B1
 Frequencies --    910.1038               922.0474               950.4132
 Red. masses --      1.3038                 5.1993                 1.8925
 Frc consts  --      0.6363                 2.6044                 1.0072
 IR Inten    --      0.0000                 0.2140                11.7627

                     28                     29                     30
                     B1                     A2                     B1
 Frequencies --   1000.6818              1013.7150              1033.2427
 Red. masses --      1.4149                 1.3560                 1.5123
 Frc consts  --      0.8348                 0.8210                 0.9512
 IR Inten    --      1.0973                 0.0000                 9.7342

                     31                     32                     33
                     B1                     A2                     A1
 Frequencies --   1048.0387              1048.2966              1065.3727
 Red. masses --      1.3671                 1.3717                 2.3704
 Frc consts  --      0.8847                 0.8881                 1.5852
 IR Inten    --      0.9604                 0.0000                 1.2538

                     34                     35                     36
                     B2                     B2                     A1
 Frequencies --   1065.9281              1139.7622              1171.1694
 Red. masses --      2.1730                 2.1367                 1.6816
 Frc consts  --      1.4547                 1.6354                 1.3590
 IR Inten    --      2.3926                 0.0486                10.8865

                     37                     38                     39
                     B2                     A1                     B2
 Frequencies --   1186.0906              1205.8185              1217.4522
 Red. masses --      1.3717                 1.1377                 1.1899
 Frc consts  --      1.1370                 0.9747                 1.0391
 IR Inten    --    124.1839                12.7486                22.0669

                     40                     41                     42
                     A2                     A1                     B2
 Frequencies --   1224.8400              1232.2943              1235.4999
 Red. masses --      1.1061                 2.6562                 1.2542
 Frc consts  --      0.9777                 2.3765                 1.1280
 IR Inten    --      0.0000                 0.7870                93.1688

                     43                     44                     45
                     B2                     A1                     A1
 Frequencies --   1292.1062              1320.5579              1328.8122
 Red. masses --      1.8465                 1.5755                 3.3910
 Frc consts  --      1.8163                 1.6188                 3.5278
 IR Inten    --      2.3907                 0.3941                34.9697

                     46                     47                     48
                     B2                     A1                     A1
 Frequencies --   1379.2564              1401.7898              1407.3523
 Red. masses --      2.9350                 2.6863                 1.4331
 Frc consts  --      3.2896                 3.1101                 1.6724
 IR Inten    --    257.8669                64.4358                 8.5672

                     49                     50                     51
                     B2                     B2                     B2
 Frequencies --   1407.6737              1468.0360              1500.9250
 Red. masses --      2.2854                 2.0951                 3.0550
 Frc consts  --      2.6682                 2.6602                 4.0549
 IR Inten    --     54.1958                86.8730               376.7466

                     52                     53                     54
                     A1                     A1                     B2
 Frequencies --   1502.5372              1544.7000              1571.8598
 Red. masses --      2.4888                 2.7930                 3.5773
 Frc consts  --      3.3104                 3.9265                 5.2075
 IR Inten    --     25.8472                18.5916               504.7078

                     55                     56                     57
                     B2                     A1                     B2
 Frequencies --   1626.1150              1630.0932              1668.1014
 Red. masses --      4.9047                 5.9280                 5.5383
 Frc consts  --      7.6412                 9.2807                 9.0797
 IR Inten    --     19.9005                22.5937               503.7073

                     58                     59                     60
                     A1                     A1                     B1
 Frequencies --   1683.2026              3031.9831              3062.4658
 Red. masses --      6.0734                 1.0623                 1.0970
 Frc consts  --     10.1380                 5.7535                 6.0618
 IR Inten    --     22.0913                 7.1282                 1.8102

                     61                     62                     63
                     A1                     B2                     A1
 Frequencies --   3178.3590              3200.1667              3200.3090
 Red. masses --      1.0922                 1.0898                 1.0898
 Frc consts  --      6.5006                 6.5754                 6.5763
 IR Inten    --      0.2312                 0.0543                 0.3564

                     64                     65                     66
                     B2                     A1                     B2
 Frequencies --   3205.0828              3205.3964              3215.3136
 Red. masses --      1.0914                 1.0916                 1.0952
 Frc consts  --      6.6054                 6.6080                 6.6712
 IR Inten    --      0.9430                 0.0111                 0.0147

                     67                     68                     69
                     A1                     B2                     A1
 Frequencies --   3215.3603              3232.0849              3232.1326
 Red. masses --      1.0953                 1.0983                 1.0984
 Frc consts  --      6.6717                 6.7600                 6.7604
 IR Inten    --      0.5894                 0.1889                 0.0089

 - Thermochemistry -
 -------------------
 Temperature   298.150 Kelvin.  Pressure   1.00000 Atm.
 Atom     1 has atomic number  6 and mass  12.00000

 Molecular mass:   179.08608 amu.
 Principal axes and moments of inertia in atomic units:
                           1         2         3
     Eigenvalues --   855.462604023.849984868.44401
           X            0.00000   0.00000   1.00000
           Y            1.00000   0.00000  -0.00000
           Z           -0.00000   1.00000  -0.00000
 This molecule is an asymmetric top.
 Rotational symmetry number  2.
 Warning -- assumption of classical behavior for rotation
           may cause significant error
 Rotational temperatures (Kelvin)      0.10125     0.02153     0.01779
 Rotational constants (GHZ):           2.10967     0.44851     0.37070
 Zero-point vibrational energy     544001.9 (Joules/Mol)
                                  130.01957 (Kcal/Mol)
 Warning -- explicit consideration of  14 degrees of freedom as
           vibrations may cause significant error
 Vibrational temperatures:     77.62   148.84   262.15   321.40   340.58
          (Kelvin)            463.41   555.03   556.34   600.01   646.42
                              710.25   745.54   771.57   875.77   895.06
                              961.78   976.48  1052.79  1087.38  1137.85
                             1150.51  1191.15  1250.01  1303.85  1309.44
                             1326.62  1367.43  1439.76  1458.51  1486.61
                             1507.89  1508.27  1532.83  1533.63  1639.86
                             1685.05  1706.52  1734.90  1751.64  1762.27
                             1773.00  1777.61  1859.05  1899.99  1911.86
                             1984.44  2016.86  2024.87  2025.33  2112.18
                             2159.50  2161.82  2222.48  2261.56  2339.62
                             2345.34  2400.03  2421.75  4362.35  4406.21
                             4572.95  4604.33  4604.53  4611.40  4611.85
                             4626.12  4626.19  4650.25  4650.32

 Zero-point correction=                           0.207199 (Hartree/Particle)
 Thermal correction to Energy=                    0.217127
 Thermal correction to Enthalpy=                  0.218071
 Thermal correction to Gibbs Free Energy=         0.172113
 Sum of electronic and zero-point Energies=           -539.603578
 Sum of electronic and thermal Energies=              -539.593651
 Sum of electronic and thermal Enthalpies=            -539.592706
 Sum of electronic and thermal Free Energies=         -539.638664

                     E (Thermal)             CV                S
                      KCal/Mol        Cal/Mol-Kelvin    Cal/Mol-Kelvin
 Total                  136.249             41.390             96.727
 Electronic               0.000              0.000              0.000
 Translational            0.889              2.981             41.455
 Rotational               0.889              2.981             29.817
 Vibrational            134.472             35.429             25.455
 Vibration     1          0.596              1.976              4.667
 Vibration     2          0.605              1.946              3.388
 Vibration     3          0.630              1.864              2.306
 Vibration     4          0.649              1.805              1.931
 Vibration     5          0.656              1.785              1.827
 Vibration     6          0.707              1.631              1.299
 Vibration     7          0.754              1.501              1.016
 Vibration     8          0.755              1.499              1.013
 Vibration     9          0.780              1.433              0.902
 Vibration    10          0.808              1.362              0.798
 Vibration    11          0.849              1.264              0.674
 Vibration    12          0.873              1.210              0.614
 Vibration    13          0.891              1.170              0.573
 Vibration    14          0.968              1.013              0.435

 Normal termination of Gaussian 16 at Fri Jul 15 11:12:13 2022.
