 Gaussian 16, Revision C.01,
 Gaussian 16:  ES64L-G16RevC.01  3-Jul-2019

 -------------------------------------------
 #n M062X/6-311++G(d,p) SP pop=reg formcheck
 -------------------------------------------

 -----
 SP_-6
 -----
 Symbolic Z-matrix:
 Charge =  1 Multiplicity = 1

                         Standard orientation:
 ---------------------------------------------------------------------
 Center     Atomic      Atomic             Coordinates (Angstroms)
 Number     Number       Type             X           Y           Z
 ---------------------------------------------------------------------
      1          6           0        2.482906   -1.372652    0.000000
      2          6           0        3.696049   -0.681569    0.000000
      3          6           0        3.688919    0.713107    0.000000
      4          6           0        2.487373    1.407663    0.000000
      5          6           0       -2.450453    1.414625    0.000000
      6          6           0       -3.695985    0.718303    0.000000
      7          6           0       -3.723736   -0.665234    0.000000
      8          6           0       -2.513737   -1.355515    0.000000
      9          6           0       -0.009863   -1.457553    0.000000
     10          6           0        0.024568    1.433063    0.000000
     11          6           0        1.268943   -0.690772    0.000000
     12          6           0        1.248283    0.729085    0.000000
     13          6           0       -1.260168   -0.666770    0.000000
     14          6           0       -1.232892    0.735071    0.000000
     15          1           0        2.483354   -2.457806    0.000000
     16          1           0        4.631833   -1.225949    0.000000
     17          1           0        4.623297    1.260353    0.000000
     18          1           0        2.489116    2.491873    0.000000
     19          1           0        0.025505    2.516044    0.000000
     20          1           0       -2.458067    2.499605    0.000000
     21          1           0       -4.616252    1.290037    0.000000
     22          1           0       -4.662237   -1.202355    0.000000
     23          1           0       -2.506658   -2.440999    0.000000
     24          1           0       -0.035531   -2.147960    0.863585
     25          1           0       -0.035593   -2.147960   -0.863585
 ---------------------------------------------------------------------

 SCF Done:  E(RM062X) =  -539.757420688     A.U. after   15 cycles

 The electronic state is 1-A.
 Alpha  occ. eigenvalues --  -10.77750 -10.73605 -10.73074 -10.72765 -10.72321
 Alpha  occ. eigenvalues --  -10.71706 -10.71642 -10.71223 -10.71071 -10.70587
 Alpha  occ. eigenvalues --  -10.70197 -10.69964 -10.69871 -10.69596  -1.16249
 Alpha  occ. eigenvalues --   -1.12267  -1.06766  -1.05607  -1.01172  -1.00117
 Alpha  occ. eigenvalues --   -0.95628  -0.90941  -0.86294  -0.85779  -0.83733
 Alpha  occ. eigenvalues --   -0.78315  -0.75892  -0.74277  -0.69558  -0.69177
 Alpha  occ. eigenvalues --   -0.68381  -0.68063  -0.67996  -0.64814  -0.64199
 Alpha  occ. eigenvalues --   -0.62867  -0.61740  -0.60060  -0.59396  -0.59090
 Alpha  occ. eigenvalues --   -0.56861  -0.55289  -0.54642  -0.52331  -0.46748
 Alpha  occ. eigenvalues --   -0.46020  -0.44248
 Alpha virt. eigenvalues --   -0.26109  -0.14714  -0.14134  -0.12838  -0.11170
 Alpha virt. eigenvalues --   -0.10086  -0.09236  -0.08001  -0.07979  -0.07482
 Alpha virt. eigenvalues --   -0.07199  -0.07158  -0.05657  -0.05590  -0.05359

 Mulliken charges:
               1
     1  C    0.079408
     2  C   -0.400605
     3  C   -0.434578
     4  C    0.021216
     5  C   -0.004249
     6  C   -0.442645
     7  C   -0.406075
     8  C    0.096683
     9  C   -0.339789
    10  C    0.084016
    11  C   -0.634539
    12  C    0.695789
    13  C   -0.622496
    14  C    0.681377
    15  H    0.239280
    16  H    0.259680
    17  H    0.251116
    18  H    0.224444
    19  H    0.191290
    20  H    0.221511
    21  H    0.248246
    22  H    0.254518
    23  H    0.237426
    24  H    0.249488
    25  H    0.249487
 Sum of Mulliken charges =   1.00000

 Dipole moment (field-independent basis, Debye):
    X=              0.5431    Y=              0.1919    Z=              0.0000  Tot=              0.5760
 Quadrupole moment (field-independent basis, Debye-Ang):
   XX=            -30.8579   YY=            -56.1814   ZZ=            -84.2741
   XY=              0.0449   XZ=              0.0001   YZ=             -0.0000

 Normal termination of Gaussian 16 at Thu Jul 14 17:00:06 2022.
