 Gaussian 16, Revision C.01,
 Gaussian 16:  ES64L-G16RevC.01  3-Jul-2019

 -------------------------------------------
 #n M062X/6-311++G(d,p) SP pop=reg formcheck
 -------------------------------------------

 -----
 SP_-3
 -----
 Symbolic Z-matrix:
 Charge =  1 Multiplicity = 1

                         Standard orientation:
 ---------------------------------------------------------------------
 Center     Atomic      Atomic             Coordinates (Angstroms)
 Number     Number       Type             X           Y           Z
 ---------------------------------------------------------------------
      1          6           0        2.490701   -1.368403    0.000000
      2          6           0        3.703006   -0.677581    0.000000
      3          6           0        3.690706    0.714439    0.000000
      4          6           0        2.478141    1.409476    0.000000
      5          6           0       -2.459681    1.412957    0.000000
      6          6           0       -3.694239    0.717038    0.000000
      7          6           0       -3.716850   -0.669413    0.000000
      8          6           0       -2.506117   -1.359833    0.000000
      9          6           0       -0.004932   -1.457787    0.000000
     10          6           0        0.012284    1.433151    0.000000
     11          6           0        1.266790   -0.684711    0.000000
     12          6           0        1.244423    0.730613    0.000000
     13          6           0       -1.262402   -0.672710    0.000000
     14          6           0       -1.236727    0.733606    0.000000
     15          1           0        2.489190   -2.453639    0.000000
     16          1           0        4.639489   -1.220116    0.000000
     17          1           0        4.621585    1.267808    0.000000
     18          1           0        2.481353    2.493896    0.000000
     19          1           0        0.012753    2.516161    0.000000
     20          1           0       -2.465828    2.497763    0.000000
     21          1           0       -4.618062    1.282650    0.000000
     22          1           0       -4.654692   -1.208318    0.000000
     23          1           0       -2.500843   -2.445236    0.000000
     24          1           0       -0.017766   -2.148012    0.863678
     25          1           0       -0.017797   -2.148012   -0.863678
 ---------------------------------------------------------------------

 SCF Done:  E(RM062X) =  -539.758615159     A.U. after   15 cycles

 The electronic state is 1-A.
 Alpha  occ. eigenvalues --  -10.77769 -10.73477 -10.73211 -10.72663 -10.72441
 Alpha  occ. eigenvalues --  -10.71593 -10.71371 -10.71351 -10.71070 -10.70843
 Alpha  occ. eigenvalues --  -10.70139 -10.70023 -10.69805 -10.69667  -1.16230
 Alpha  occ. eigenvalues --   -1.12263  -1.06767  -1.05580  -1.01177  -1.00072
 Alpha  occ. eigenvalues --   -0.95666  -0.90942  -0.86289  -0.85785  -0.83735
 Alpha  occ. eigenvalues --   -0.78329  -0.75866  -0.74288  -0.69489  -0.69191
 Alpha  occ. eigenvalues --   -0.68411  -0.68092  -0.68000  -0.64700  -0.64216
 Alpha  occ. eigenvalues --   -0.62941  -0.61774  -0.59958  -0.59494  -0.59060
 Alpha  occ. eigenvalues --   -0.56869  -0.55226  -0.54749  -0.52330  -0.46603
 Alpha  occ. eigenvalues --   -0.46000  -0.44404
 Alpha virt. eigenvalues --   -0.26105  -0.14710  -0.14144  -0.12841  -0.11168
 Alpha virt. eigenvalues --   -0.10085  -0.09231  -0.08013  -0.07983  -0.07480
 Alpha virt. eigenvalues --   -0.07197  -0.07160  -0.05657  -0.05592  -0.05356

 Mulliken charges:
               1
     1  C    0.083687
     2  C   -0.402131
     3  C   -0.436526
     4  C    0.014804
     5  C    0.002038
     6  C   -0.440557
     7  C   -0.404877
     8  C    0.092328
     9  C   -0.339231
    10  C    0.084609
    11  C   -0.632615
    12  C    0.693006
    13  C   -0.626668
    14  C    0.685717
    15  H    0.238814
    16  H    0.258376
    17  H    0.250410
    18  H    0.223701
    19  H    0.191444
    20  H    0.222230
    21  H    0.248973
    22  H    0.255792
    23  H    0.237883
    24  H    0.249397
    25  H    0.249397
 Sum of Mulliken charges =   1.00000

 Dipole moment (field-independent basis, Debye):
    X=              0.2718    Y=              0.1971    Z=              0.0000  Tot=              0.3358
 Quadrupole moment (field-independent basis, Debye-Ang):
   XX=            -30.8815   YY=            -56.1778   ZZ=            -84.2771
   XY=              0.0225   XZ=              0.0000   YZ=             -0.0000

 Normal termination of Gaussian 16 at Thu Jul 14 16:52:34 2022.
