 Gaussian 16, Revision C.01,
 Gaussian 16:  ES64L-G16RevC.01  3-Jul-2019

 -------------------------------------------
 #n M062X/6-311++G(d,p) SP pop=reg formcheck
 -------------------------------------------

 -----
 SP_-2
 -----
 Symbolic Z-matrix:
 Charge =  1 Multiplicity = 1

                         Standard orientation:
 ---------------------------------------------------------------------
 Center     Atomic      Atomic             Coordinates (Angstroms)
 Number     Number       Type             X           Y           Z
 ---------------------------------------------------------------------
      1          6           0        2.493298   -1.366981    0.000000
      2          6           0        3.705324   -0.676246    0.000000
      3          6           0        3.691303    0.714885    0.000000
      4          6           0        2.475064    1.410074    0.000000
      5          6           0       -2.462757    1.412394    0.000000
      6          6           0       -3.693659    0.716618    0.000000
      7          6           0       -3.714554   -0.670801    0.000000
      8          6           0       -2.503576   -1.361268    0.000000
      9          6           0       -0.003288   -1.457863    0.000000
     10          6           0        0.008190    1.433172    0.000000
     11          6           0        1.266068   -0.682693    0.000000
     12          6           0        1.243135    0.731120    0.000000
     13          6           0       -1.263143   -0.674692    0.000000
     14          6           0       -1.238005    0.733116    0.000000
     15          1           0        2.491134   -2.452247    0.000000
     16          1           0        4.642040   -1.218167    0.000000
     17          1           0        4.621011    1.270292    0.000000
     18          1           0        2.478765    2.494566    0.000000
     19          1           0        0.008502    2.516191    0.000000
     20          1           0       -2.468415    2.497144    0.000000
     21          1           0       -4.618663    1.280187    0.000000
     22          1           0       -4.652175   -1.210301    0.000000
     23          1           0       -2.498902   -2.446645    0.000000
     24          1           0       -0.011844   -2.148018    0.863708
     25          1           0       -0.011864   -2.148018   -0.863708
 ---------------------------------------------------------------------

 SCF Done:  E(RM062X) =  -539.758836015     A.U. after   15 cycles

 The electronic state is 1-A.
 Alpha  occ. eigenvalues --  -10.77772 -10.73434 -10.73256 -10.72628 -10.72480
 Alpha  occ. eigenvalues --  -10.71554 -10.71392 -10.71282 -10.71070 -10.70930
 Alpha  occ. eigenvalues --  -10.70120 -10.70043 -10.69783 -10.69691  -1.16226
 Alpha  occ. eigenvalues --   -1.12262  -1.06767  -1.05575  -1.01178  -1.00063
 Alpha  occ. eigenvalues --   -0.95673  -0.90942  -0.86288  -0.85786  -0.83736
 Alpha  occ. eigenvalues --   -0.78332  -0.75861  -0.74290  -0.69474  -0.69196
 Alpha  occ. eigenvalues --   -0.68417  -0.68097  -0.68001  -0.64677  -0.64220
 Alpha  occ. eigenvalues --   -0.62956  -0.61780  -0.59934  -0.59517  -0.59055
 Alpha  occ. eigenvalues --   -0.56870  -0.55211  -0.54772  -0.52330  -0.46575
 Alpha  occ. eigenvalues --   -0.45995  -0.44436
 Alpha virt. eigenvalues --   -0.26104  -0.14709  -0.14147  -0.12842  -0.11167
 Alpha virt. eigenvalues --   -0.10084  -0.09230  -0.08015  -0.07984  -0.07480
 Alpha virt. eigenvalues --   -0.07197  -0.07161  -0.05657  -0.05592  -0.05356

 Mulliken charges:
               1
     1  C    0.085114
     2  C   -0.402627
     3  C   -0.437188
     4  C    0.012622
     5  C    0.004110
     6  C   -0.439876
     7  C   -0.404458
     8  C    0.090873
     9  C   -0.339204
    10  C    0.084677
    11  C   -0.631810
    12  C    0.692039
    13  C   -0.627848
    14  C    0.687174
    15  H    0.238661
    16  H    0.257942
    17  H    0.250172
    18  H    0.223456
    19  H    0.191475
    20  H    0.222475
    21  H    0.249214
    22  H    0.256220
    23  H    0.238039
    24  H    0.249375
    25  H    0.249374
 Sum of Mulliken charges =   1.00000

 Dipole moment (field-independent basis, Debye):
    X=              0.1813    Y=              0.1980    Z=              0.0000  Tot=              0.2685
 Quadrupole moment (field-independent basis, Debye-Ang):
   XX=            -30.8858   YY=            -56.1771   ZZ=            -84.2777
   XY=              0.0150   XZ=              0.0000   YZ=             -0.0000

 Normal termination of Gaussian 16 at Thu Jul 14 16:50:09 2022.
