 Gaussian 16, Revision C.01,
 Gaussian 16:  ES64L-G16RevC.01  3-Jul-2019

 -------------------------------------------
 #n M062X/6-311++G(d,p) SP pop=reg formcheck
 -------------------------------------------

 ------
 SP_-10
 ------
 Symbolic Z-matrix:
 Charge =  1 Multiplicity = 1

                         Standard orientation:
 ---------------------------------------------------------------------
 Center     Atomic      Atomic             Coordinates (Angstroms)
 Number     Number       Type             X           Y           Z
 ---------------------------------------------------------------------
      1          6           0        2.472500   -1.378282    0.000000
      2          6           0        3.686769   -0.686852    0.000000
      3          6           0        3.686546    0.711345    0.000000
      4          6           0        2.499683    1.405204    0.000000
      5          6           0       -2.438153    1.416805    0.000000
      6          6           0       -3.698323    0.720002    0.000000
      7          6           0       -3.732913   -0.659630    0.000000
      8          6           0       -2.523885   -1.349723    0.000000
      9          6           0       -0.016436   -1.457220    0.000000
     10          6           0        0.040946    1.432886    0.000000
     11          6           0        1.271786   -0.698867    0.000000
     12          6           0        1.253429    0.727031    0.000000
     13          6           0       -1.257162   -0.658865    0.000000
     14          6           0       -1.227778    0.737006    0.000000
     15          1           0        2.475562   -2.463340    0.000000
     16          1           0        4.621615   -1.233689    0.000000
     17          1           0        4.625561    1.250413    0.000000
     18          1           0        2.499466    2.489145    0.000000
     19          1           0        0.042506    2.515832    0.000000
     20          1           0       -2.447722    2.502031    0.000000
     21          1           0       -4.613822    1.299880    0.000000
     22          1           0       -4.672286   -1.194370    0.000000
     23          1           0       -2.514399   -2.435331    0.000000
     24          1           0       -0.059218   -2.147804    0.863462
     25          1           0       -0.059320   -2.147803   -0.863462
 ---------------------------------------------------------------------

 SCF Done:  E(RM062X) =  -539.754579446     A.U. after   15 cycles

 The electronic state is 1-A.
 Alpha  occ. eigenvalues --  -10.77705 -10.73771 -10.72891 -10.72889 -10.72153
 Alpha  occ. eigenvalues --  -10.72009 -10.71849 -10.71073 -10.71048 -10.70272
 Alpha  occ. eigenvalues --  -10.70255 -10.69955 -10.69886 -10.69499  -1.16294
 Alpha  occ. eigenvalues --   -1.12274  -1.06762  -1.05666  -1.01161  -1.00217
 Alpha  occ. eigenvalues --   -0.95545  -0.90937  -0.86306  -0.85767  -0.83728
 Alpha  occ. eigenvalues --   -0.78283  -0.75949  -0.74251  -0.69685  -0.69172
 Alpha  occ. eigenvalues --   -0.68311  -0.68002  -0.67988  -0.65033  -0.64175
 Alpha  occ. eigenvalues --   -0.62722  -0.61658  -0.60227  -0.59239  -0.59156
 Alpha  occ. eigenvalues --   -0.56843  -0.55381  -0.54447  -0.52333  -0.47048
 Alpha  occ. eigenvalues --   -0.46045  -0.43944
 Alpha virt. eigenvalues --   -0.26119  -0.14725  -0.14109  -0.12829  -0.11176
 Alpha virt. eigenvalues --   -0.10089  -0.09250  -0.07975  -0.07969  -0.07486
 Alpha virt. eigenvalues --   -0.07202  -0.07154  -0.05659  -0.05586  -0.05366

 Mulliken charges:
               1
     1  C    0.073733
     2  C   -0.398505
     3  C   -0.432046
     4  C    0.029342
     5  C   -0.012741
     6  C   -0.445535
     7  C   -0.407519
     8  C    0.102440
     9  C   -0.341627
    10  C    0.082313
    11  C   -0.636154
    12  C    0.699089
    13  C   -0.615258
    14  C    0.675828
    15  H    0.239909
    16  H    0.261427
    17  H    0.252038
    18  H    0.225439
    19  H    0.190944
    20  H    0.220592
    21  H    0.247270
    22  H    0.252846
    23  H    0.236854
    24  H    0.249662
    25  H    0.249660
 Sum of Mulliken charges =   1.00000

 Dipole moment (field-independent basis, Debye):
    X=              0.9030    Y=              0.1798    Z=              0.0000  Tot=              0.9207
 Quadrupole moment (field-independent basis, Debye-Ang):
   XX=            -30.8016   YY=            -56.1903   ZZ=            -84.2675
   XY=              0.0743   XZ=              0.0001   YZ=             -0.0000

 Normal termination of Gaussian 16 at Thu Jul 14 17:10:37 2022.
