 Gaussian 16, Revision C.01,
 Gaussian 16:  ES64L-G16RevC.01  3-Jul-2019

 -------------------------------------------
 #n M062X/6-311++G(d,p) SP pop=reg formcheck
 -------------------------------------------

 -----
 SP_-7
 -----
 Symbolic Z-matrix:
 Charge =  1 Multiplicity = 1

                         Standard orientation:
 ---------------------------------------------------------------------
 Center     Atomic      Atomic             Coordinates (Angstroms)
 Number     Number       Type             X           Y           Z
 ---------------------------------------------------------------------
      1          6           0        2.480305   -1.374064    0.000000
      2          6           0        3.693729   -0.682894    0.000000
      3          6           0        3.688324    0.712665    0.000000
      4          6           0        2.490450    1.407053    0.000000
      5          6           0       -2.447377    1.415174    0.000000
      6          6           0       -3.696568    0.718727    0.000000
      7          6           0       -3.726031   -0.663837    0.000000
      8          6           0       -2.516276   -1.354070    0.000000
      9          6           0       -0.011506   -1.457471    0.000000
     10          6           0        0.028663    1.433025    0.000000
     11          6           0        1.269656   -0.692794    0.000000
     12          6           0        1.249570    0.728573    0.000000
     13          6           0       -1.259419   -0.664792    0.000000
     14          6           0       -1.231614    0.735556    0.000000
     15          1           0        2.481407   -2.459192    0.000000
     16          1           0        4.629279   -1.227888    0.000000
     17          1           0        4.623865    1.257868    0.000000
     18          1           0        2.491703    2.491194    0.000000
     19          1           0        0.029755    2.515998    0.000000
     20          1           0       -2.455481    2.500215    0.000000
     21          1           0       -4.615647    1.292498    0.000000
     22          1           0       -4.664750   -1.200362    0.000000
     23          1           0       -2.508594   -2.439584    0.000000
     24          1           0       -0.041453   -2.147930    0.863555
     25          1           0       -0.041525   -2.147930   -0.863555
 ---------------------------------------------------------------------

 SCF Done:  E(RM062X) =  -539.756844628     A.U. after   15 cycles

 The electronic state is 1-A.
 Alpha  occ. eigenvalues --  -10.77740 -10.73647 -10.73028 -10.72798 -10.72280
 Alpha  occ. eigenvalues --  -10.71743 -10.71733 -10.71180 -10.71071 -10.70503
 Alpha  occ. eigenvalues --  -10.70215 -10.69945 -10.69892 -10.69572  -1.16258
 Alpha  occ. eigenvalues --   -1.12268  -1.06765  -1.05619  -1.01170  -1.00138
 Alpha  occ. eigenvalues --   -0.95611  -0.90940  -0.86297  -0.85777  -0.83732
 Alpha  occ. eigenvalues --   -0.78309  -0.75904  -0.74271  -0.69587  -0.69174
 Alpha  occ. eigenvalues --   -0.68367  -0.68050  -0.67994  -0.64863  -0.64193
 Alpha  occ. eigenvalues --   -0.62834  -0.61724  -0.60100  -0.59358  -0.59104
 Alpha  occ. eigenvalues --   -0.56858  -0.55312  -0.54597  -0.52332  -0.46814
 Alpha  occ. eigenvalues --   -0.46027  -0.44180
 Alpha virt. eigenvalues --   -0.26111  -0.14717  -0.14129  -0.12836  -0.11171
 Alpha virt. eigenvalues --   -0.10087  -0.09239  -0.07996  -0.07977  -0.07483
 Alpha virt. eigenvalues --   -0.07199  -0.07157  -0.05658  -0.05589  -0.05361

 Mulliken charges:
               1
     1  C    0.077985
     2  C   -0.400086
     3  C   -0.433939
     4  C    0.023299
     5  C   -0.006363
     6  C   -0.443356
     7  C   -0.406454
     8  C    0.098130
     9  C   -0.340132
    10  C    0.083689
    11  C   -0.635034
    12  C    0.696665
    13  C   -0.620878
    14  C    0.679956
    15  H    0.239437
    16  H    0.260116
    17  H    0.251349
    18  H    0.224692
    19  H    0.191218
    20  H    0.221276
    21  H    0.248003
    22  H    0.254097
    23  H    0.237279
    24  H    0.249526
    25  H    0.249525
 Sum of Mulliken charges =   1.00000

 Dipole moment (field-independent basis, Debye):
    X=              0.6333    Y=              0.1895    Z=              0.0000  Tot=              0.6611
 Quadrupole moment (field-independent basis, Debye-Ang):
   XX=            -30.8464   YY=            -56.1832   ZZ=            -84.2728
   XY=              0.0523   XZ=              0.0001   YZ=             -0.0000

 Normal termination of Gaussian 16 at Thu Jul 14 17:02:33 2022.
