 Gaussian 16, Revision C.01,
 Gaussian 16:  ES64L-G16RevC.01  3-Jul-2019

 -------------------------------------------
 #n M062X/6-311++G(d,p) SP pop=reg formcheck
 -------------------------------------------

 ------
 SP_-15
 ------
 Symbolic Z-matrix:
 Charge =  1 Multiplicity = 1

                         Standard orientation:
 ---------------------------------------------------------------------
 Center     Atomic      Atomic             Coordinates (Angstroms)
 Number     Number       Type             X           Y           Z
 ---------------------------------------------------------------------
      1          6           0        2.459477   -1.385260    0.000000
      2          6           0        3.675163   -0.693396    0.000000
      3          6           0        3.683595    0.709167    0.000000
      4          6           0        2.515073    1.402063    0.000000
      5          6           0       -2.422783    1.419458    0.000000
      6          6           0       -3.701264    0.722143    0.000000
      7          6           0       -3.744375   -0.652573    0.000000
      8          6           0       -2.536550   -1.342429    0.000000
      9          6           0       -0.024648   -1.456772    0.000000
     10          6           0        0.061415    1.432568    0.000000
     11          6           0        1.275298   -0.709009    0.000000
     12          6           0        1.259856    0.724435    0.000000
     13          6           0       -1.253362   -0.649010    0.000000
     14          6           0       -1.221382    0.739396    0.000000
     15          1           0        2.465808   -2.470224    0.000000
     16          1           0        4.608827   -1.243303    0.000000
     17          1           0        4.628361    1.237985    0.000000
     18          1           0        2.512403    2.485690    0.000000
     19          1           0        0.063754    2.515475    0.000000
     20          1           0       -2.434796    2.505013    0.000000
     21          1           0       -4.610756    1.312174    0.000000
     22          1           0       -4.684830   -1.184336    0.000000
     23          1           0       -2.524056   -2.428217    0.000000
     24          1           0       -0.088823   -2.147471    0.863308
     25          1           0       -0.088977   -2.147469   -0.863308
 ---------------------------------------------------------------------

 SCF Done:  E(RM062X) =  -539.748996893     A.U. after   16 cycles

 The electronic state is 1-A.
 Alpha  occ. eigenvalues --  -10.77620 -10.73968 -10.73031 -10.72658 -10.72476
 Alpha  occ. eigenvalues --  -10.72012 -10.71932 -10.71079 -10.70821 -10.70363
 Alpha  occ. eigenvalues --  -10.70055 -10.69869 -10.69775 -10.69377  -1.16379
 Alpha  occ. eigenvalues --   -1.12286  -1.06757  -1.05780  -1.01142  -1.00390
 Alpha  occ. eigenvalues --   -0.95401  -0.90925  -0.86326  -0.85743  -0.83716
 Alpha  occ. eigenvalues --   -0.78221  -0.76050  -0.74209  -0.69871  -0.69191
 Alpha  occ. eigenvalues --   -0.68185  -0.67973  -0.67902  -0.65358  -0.64148
 Alpha  occ. eigenvalues --   -0.62526  -0.61500  -0.60452  -0.59265  -0.59036
 Alpha  occ. eigenvalues --   -0.56805  -0.55478  -0.54155  -0.52336  -0.47519
 Alpha  occ. eigenvalues --   -0.46072  -0.43488
 Alpha virt. eigenvalues --   -0.26139  -0.14743  -0.14065  -0.12810  -0.11186
 Alpha virt. eigenvalues --   -0.10095  -0.09274  -0.07951  -0.07928  -0.07494
 Alpha virt. eigenvalues --   -0.07208  -0.07144  -0.05663  -0.05580  -0.05380

 Mulliken charges:
               1
     1  C    0.066748
     2  C   -0.395837
     3  C   -0.428942
     4  C    0.038532
     5  C   -0.023411
     6  C   -0.449317
     7  C   -0.409034
     8  C    0.109472
     9  C   -0.345636
    10  C    0.078658
    11  C   -0.637095
    12  C    0.702256
    13  C   -0.602986
    14  C    0.669660
    15  H    0.240691
    16  H    0.263615
    17  H    0.253153
    18  H    0.226671
    19  H    0.190293
    20  H    0.219527
    21  H    0.246044
    22  H    0.250806
    23  H    0.236211
    24  H    0.249962
    25  H    0.249958
 Sum of Mulliken charges =   1.00000

 Dipole moment (field-independent basis, Debye):
    X=              1.3481    Y=              0.1563    Z=              0.0000  Tot=              1.3571
 Quadrupole moment (field-independent basis, Debye-Ang):
   XX=            -30.6922   YY=            -56.2075   ZZ=            -84.2548
   XY=              0.1097   XZ=              0.0001   YZ=             -0.0000

 Normal termination of Gaussian 16 at Thu Jul 14 17:24:44 2022.
