 Gaussian 16, Revision C.01,
 Gaussian 16:  ES64L-G16RevC.01  3-Jul-2019

 -------------------------------------------
 #n M062X/6-311++G(d,p) SP pop=reg formcheck
 -------------------------------------------

 ------
 SP_-16
 ------
 Symbolic Z-matrix:
 Charge =  1 Multiplicity = 1

                         Standard orientation:
 ---------------------------------------------------------------------
 Center     Atomic      Atomic             Coordinates (Angstroms)
 Number     Number       Type             X           Y           Z
 ---------------------------------------------------------------------
      1          6           0        2.456871   -1.386647    0.000000
      2          6           0        3.672841   -0.694697    0.000000
      3          6           0        3.683007    0.708735    0.000000
      4          6           0        2.518151    1.401425    0.000000
      5          6           0       -2.419709    1.419979    0.000000
      6          6           0       -3.701854    0.722574    0.000000
      7          6           0       -3.746666   -0.651155    0.000000
      8          6           0       -2.539080   -1.340963    0.000000
      9          6           0       -0.026290   -1.456678    0.000000
     10          6           0        0.065509    1.432492    0.000000
     11          6           0        1.275995   -0.711041    0.000000
     12          6           0        1.261140    0.723913    0.000000
     13          6           0       -1.252596   -0.647043    0.000000
     14          6           0       -1.220103    0.739870    0.000000
     15          1           0        2.463855   -2.471596    0.000000
     16          1           0        4.606268   -1.245218    0.000000
     17          1           0        4.628917    1.235500    0.000000
     18          1           0        2.514990    2.484992    0.000000
     19          1           0        0.068003    2.515391    0.000000
     20          1           0       -2.432211    2.505602    0.000000
     21          1           0       -4.610139    1.314632    0.000000
     22          1           0       -4.687336   -1.182322    0.000000
     23          1           0       -2.525984   -2.426790    0.000000
     24          1           0       -0.094743   -2.147386    0.863278
     25          1           0       -0.094907   -2.147384   -0.863278
 ---------------------------------------------------------------------

 SCF Done:  E(RM062X) =  -539.747606483     A.U. after   16 cycles

 The electronic state is 1-A.
 Alpha  occ. eigenvalues --  -10.77599 -10.74006 -10.73057 -10.72611 -10.72570
 Alpha  occ. eigenvalues --  -10.72042 -10.71887 -10.71080 -10.70775 -10.70380
 Alpha  occ. eigenvalues --  -10.70074 -10.69814 -10.69735 -10.69352  -1.16400
 Alpha  occ. eigenvalues --   -1.12289  -1.06756  -1.05808  -1.01137  -1.00429
 Alpha  occ. eigenvalues --   -0.95368  -0.90921  -0.86330  -0.85737  -0.83713
 Alpha  occ. eigenvalues --   -0.78206  -0.76074  -0.74200  -0.69910  -0.69198
 Alpha  occ. eigenvalues --   -0.68157  -0.67970  -0.67881  -0.65426  -0.64142
 Alpha  occ. eigenvalues --   -0.62488  -0.61463  -0.60498  -0.59287  -0.58996
 Alpha  occ. eigenvalues --   -0.56796  -0.55495  -0.54091  -0.52336  -0.47620
 Alpha  occ. eigenvalues --   -0.46077  -0.43392
 Alpha virt. eigenvalues --   -0.26144  -0.14747  -0.14054  -0.12805  -0.11189
 Alpha virt. eigenvalues --   -0.10097  -0.09280  -0.07946  -0.07916  -0.07496
 Alpha virt. eigenvalues --   -0.07210  -0.07141  -0.05663  -0.05578  -0.05383

 Mulliken charges:
               1
     1  C    0.065372
     2  C   -0.395304
     3  C   -0.428325
     4  C    0.040207
     5  C   -0.025540
     6  C   -0.450094
     7  C   -0.409294
     8  C    0.110847
     9  C   -0.346658
    10  C    0.077713
    11  C   -0.637186
    12  C    0.702732
    13  C   -0.600039
    14  C    0.668567
    15  H    0.240846
    16  H    0.264052
    17  H    0.253371
    18  H    0.226913
    19  H    0.190136
    20  H    0.219327
    21  H    0.245799
    22  H    0.250406
    23  H    0.236093
    24  H    0.250033
    25  H    0.250028
 Sum of Mulliken charges =   1.00000

 Dipole moment (field-independent basis, Debye):
    X=              1.4362    Y=              0.1505    Z=              0.0000  Tot=              1.4441
 Quadrupole moment (field-independent basis, Debye-Ang):
   XX=            -30.6652   YY=            -56.2118   ZZ=            -84.2517
   XY=              0.1165   XZ=              0.0001   YZ=             -0.0000

 Normal termination of Gaussian 16 at Thu Jul 14 17:27:31 2022.
