 Gaussian 16, Revision C.01,
 Gaussian 16:  ES64L-G16RevC.01  3-Jul-2019

 -------------------------------------------
 #n M062X/6-311++G(d,p) SP pop=reg formcheck
 -------------------------------------------

 -----
 SP_-1
 -----
 Symbolic Z-matrix:
 Charge =  1 Multiplicity = 1

                         Standard orientation:
 ---------------------------------------------------------------------
 Center     Atomic      Atomic             Coordinates (Angstroms)
 Number     Number       Type             X           Y           Z
 ---------------------------------------------------------------------
      1          6           0        2.495895   -1.365556    0.000000
      2          6           0        3.707642   -0.674909    0.000000
      3          6           0        3.691901    0.715332    0.000000
      4          6           0        2.471987    1.410669    0.000000
      5          6           0       -2.465833    1.411829    0.000000
      6          6           0       -3.693079    0.716199    0.000000
      7          6           0       -3.712257   -0.672186    0.000000
      8          6           0       -2.501033   -1.362700    0.000000
      9          6           0       -0.001644   -1.457937    0.000000
     10          6           0        0.004095    1.433188    0.000000
     11          6           0        1.265345   -0.680676    0.000000
     12          6           0        1.241848    0.731626    0.000000
     13          6           0       -1.263883   -0.676675    0.000000
     14          6           0       -1.239282    0.732624    0.000000
     15          1           0        2.493078   -2.450854    0.000000
     16          1           0        4.644591   -1.216214    0.000000
     17          1           0        4.620436    1.272776    0.000000
     18          1           0        2.476178    2.495234    0.000000
     19          1           0        0.004251    2.516218    0.000000
     20          1           0       -2.471003    2.496523    0.000000
     21          1           0       -4.619262    1.277724    0.000000
     22          1           0       -4.649658   -1.212282    0.000000
     23          1           0       -2.496962   -2.448053    0.000000
     24          1           0       -0.005922   -2.148017    0.863739
     25          1           0       -0.005932   -2.148017   -0.863739
 ---------------------------------------------------------------------

 SCF Done:  E(RM062X) =  -539.758968442     A.U. after   15 cycles

 The electronic state is 1-A.
 Alpha  occ. eigenvalues --  -10.77775 -10.73390 -10.73302 -10.72592 -10.72518
 Alpha  occ. eigenvalues --  -10.71514 -10.71433 -10.71194 -10.71070 -10.71018
 Alpha  occ. eigenvalues --  -10.70101 -10.70062 -10.69761 -10.69715  -1.16223
 Alpha  occ. eigenvalues --   -1.12262  -1.06767  -1.05572  -1.01179  -1.00057
 Alpha  occ. eigenvalues --   -0.95678  -0.90942  -0.86287  -0.85786  -0.83736
 Alpha  occ. eigenvalues --   -0.78333  -0.75858  -0.74291  -0.69465  -0.69199
 Alpha  occ. eigenvalues --   -0.68420  -0.68100  -0.68001  -0.64663  -0.64222
 Alpha  occ. eigenvalues --   -0.62965  -0.61784  -0.59919  -0.59532  -0.59052
 Alpha  occ. eigenvalues --   -0.56871  -0.55201  -0.54787  -0.52330  -0.46557
 Alpha  occ. eigenvalues --   -0.45992  -0.44455
 Alpha virt. eigenvalues --   -0.26104  -0.14708  -0.14148  -0.12843  -0.11167
 Alpha virt. eigenvalues --   -0.10084  -0.09229  -0.08017  -0.07984  -0.07480
 Alpha virt. eigenvalues --   -0.07197  -0.07161  -0.05656  -0.05592  -0.05356

 Mulliken charges:
               1
     1  C    0.086539
     2  C   -0.403114
     3  C   -0.437857
     4  C    0.010421
     5  C    0.006166
     6  C   -0.439201
     7  C   -0.404030
     8  C    0.089418
     9  C   -0.339256
    10  C    0.084681
    11  C   -0.630914
    12  C    0.691060
    13  C   -0.628931
    14  C    0.688626
    15  H    0.238509
    16  H    0.257510
    17  H    0.249933
    18  H    0.223212
    19  H    0.191496
    20  H    0.222721
    21  H    0.249454
    22  H    0.256649
    23  H    0.238198
    24  H    0.249356
    25  H    0.249356
 Sum of Mulliken charges =   1.00000

 Dipole moment (field-independent basis, Debye):
    X=              0.0906    Y=              0.1986    Z=              0.0000  Tot=              0.2183
 Quadrupole moment (field-independent basis, Debye-Ang):
   XX=            -30.8883   YY=            -56.1768   ZZ=            -84.2780
   XY=              0.0075   XZ=              0.0000   YZ=             -0.0000

 Normal termination of Gaussian 16 at Thu Jul 14 16:47:43 2022.
