 Gaussian 16, Revision C.01,
 Gaussian 16:  ES64L-G16RevC.01  3-Jul-2019

 -------------------------------------------
 #n M062X/6-311++G(d,p) SP pop=reg formcheck
 -------------------------------------------

 ------
 SP_-13
 ------
 Symbolic Z-matrix:
 Charge =  1 Multiplicity = 1

                         Standard orientation:
 ---------------------------------------------------------------------
 Center     Atomic      Atomic             Coordinates (Angstroms)
 Number     Number       Type             X           Y           Z
 ---------------------------------------------------------------------
      1          6           0        2.464689   -1.382477    0.000000
      2          6           0        3.679806   -0.690786    0.000000
      3          6           0        3.684773    0.710035    0.000000
      4          6           0        2.508917    1.403328    0.000000
      5          6           0       -2.428930    1.418406    0.000000
      6          6           0       -3.700085    0.721285    0.000000
      7          6           0       -3.739791   -0.655403    0.000000
      8          6           0       -2.531487   -1.345354    0.000000
      9          6           0       -0.021364   -1.456955    0.000000
     10          6           0        0.053228    1.432708    0.000000
     11          6           0        1.273899   -0.704949    0.000000
     12          6           0        1.257285    0.725477    0.000000
     13          6           0       -1.254887   -0.652949    0.000000
     14          6           0       -1.223941    0.738443    0.000000
     15          1           0        2.469712   -2.467475    0.000000
     16          1           0        4.613944   -1.239466    0.000000
     17          1           0        4.627245    1.242956    0.000000
     18          1           0        2.507229    2.487078    0.000000
     19          1           0        0.055255    2.515630    0.000000
     20          1           0       -2.439966    2.503827    0.000000
     21          1           0       -4.611986    1.307258    0.000000
     22          1           0       -4.679815   -1.188356    0.000000
     23          1           0       -2.520196   -2.431066    0.000000
     24          1           0       -0.076981   -2.147622    0.863370
     25          1           0       -0.077115   -2.147621   -0.863370
 ---------------------------------------------------------------------

 SCF Done:  E(RM062X) =  -539.751502845     A.U. after   15 cycles

 The electronic state is 1-A.
 Alpha  occ. eigenvalues --  -10.77658 -10.73891 -10.72978 -10.72750 -10.72288
 Alpha  occ. eigenvalues --  -10.72022 -10.71949 -10.71076 -10.70913 -10.70327
 Alpha  occ. eigenvalues --  -10.70016 -10.70015 -10.69825 -10.69426  -1.16341
 Alpha  occ. eigenvalues --   -1.12280  -1.06759  -1.05729  -1.01150  -1.00316
 Alpha  occ. eigenvalues --   -0.95462  -0.90931  -0.86317  -0.85753  -0.83721
 Alpha  occ. eigenvalues --   -0.78248  -0.76006  -0.74227  -0.69794  -0.69180
 Alpha  occ. eigenvalues --   -0.68239  -0.67980  -0.67944  -0.65224  -0.64159
 Alpha  occ. eigenvalues --   -0.62603  -0.61570  -0.60361  -0.59220  -0.59118
 Alpha  occ. eigenvalues --   -0.56822  -0.55442  -0.54276  -0.52335  -0.47322
 Alpha  occ. eigenvalues --   -0.46061  -0.43677
 Alpha virt. eigenvalues --   -0.26130  -0.14735  -0.14084  -0.12818  -0.11181
 Alpha virt. eigenvalues --   -0.10092  -0.09264  -0.07959  -0.07949  -0.07491
 Alpha virt. eigenvalues --   -0.07206  -0.07148  -0.05661  -0.05583  -0.05374

 Mulliken charges:
               1
     1  C    0.069523
     2  C   -0.396906
     3  C   -0.430179
     4  C    0.035008
     5  C   -0.019145
     6  C   -0.447783
     7  C   -0.408470
     8  C    0.106688
     9  C   -0.343810
    10  C    0.080330
    11  C   -0.636829
    12  C    0.701139
    13  C   -0.608368
    14  C    0.671998
    15  H    0.240380
    16  H    0.262740
    17  H    0.252712
    18  H    0.226181
    19  H    0.190582
    20  H    0.219941
    21  H    0.246534
    22  H    0.251615
    23  H    0.236457
    24  H    0.249831
    25  H    0.249828
 Sum of Mulliken charges =   1.00000

 Dipole moment (field-independent basis, Debye):
    X=              1.1708    Y=              0.1668    Z=              0.0000  Tot=              1.1827
 Quadrupole moment (field-independent basis, Debye-Ang):
   XX=            -30.7411   YY=            -56.1998   ZZ=            -84.2605
   XY=              0.0957   XZ=              0.0001   YZ=             -0.0000

 Normal termination of Gaussian 16 at Thu Jul 14 17:18:57 2022.
