 Gaussian 16, Revision C.01,
 Gaussian 16:  ES64L-G16RevC.01  3-Jul-2019

 -------------------------------------------
 #n M062X/6-311++G(d,p) SP pop=reg formcheck
 -------------------------------------------

 ------
 SP_-11
 ------
 Symbolic Z-matrix:
 Charge =  1 Multiplicity = 1

                         Standard orientation:
 ---------------------------------------------------------------------
 Center     Atomic      Atomic             Coordinates (Angstroms)
 Number     Number       Type             X           Y           Z
 ---------------------------------------------------------------------
      1          6           0        2.469897   -1.379683    0.000000
      2          6           0        3.684448   -0.688166    0.000000
      3          6           0        3.685954    0.710908    0.000000
      4          6           0        2.502761    1.404582    0.000000
      5          6           0       -2.435078    1.417342    0.000000
      6          6           0       -3.698910    0.720429    0.000000
      7          6           0       -3.735206   -0.658223    0.000000
      8          6           0       -2.526420   -1.348269    0.000000
      9          6           0       -0.018079   -1.457133    0.000000
     10          6           0        0.045040    1.432831    0.000000
     11          6           0        1.272492   -0.700894    0.000000
     12          6           0        1.254714    0.726514    0.000000
     13          6           0       -1.256406   -0.656892    0.000000
     14          6           0       -1.226499    0.737486    0.000000
     15          1           0        2.473613   -2.464720    0.000000
     16          1           0        4.619058   -1.235617    0.000000
     17          1           0        4.626124    1.247927    0.000000
     18          1           0        2.502054    2.488458    0.000000
     19          1           0        0.046756    2.515769    0.000000
     20          1           0       -2.445137    2.502632    0.000000
     21          1           0       -4.613211    1.302340    0.000000
     22          1           0       -4.674796   -1.192368    0.000000
     23          1           0       -2.516332   -2.433911    0.000000
     24          1           0       -0.065139   -2.147749    0.863431
     25          1           0       -0.065252   -2.147749   -0.863431
 ---------------------------------------------------------------------

 SCF Done:  E(RM062X) =  -539.753644469     A.U. after   15 cycles

 The electronic state is 1-A.
 Alpha  occ. eigenvalues --  -10.77691 -10.73811 -10.72921 -10.72843 -10.72110
 Alpha  occ. eigenvalues --  -10.72101 -10.71883 -10.71074 -10.71003 -10.70290
 Alpha  occ. eigenvalues --  -10.70174 -10.69976 -10.69866 -10.69475  -1.16308
 Alpha  occ. eigenvalues --   -1.12276  -1.06761  -1.05686  -1.01158  -1.00248
 Alpha  occ. eigenvalues --   -0.95519  -0.90935  -0.86310  -0.85763  -0.83726
 Alpha  occ. eigenvalues --   -0.78272  -0.75967  -0.74243  -0.69721  -0.69173
 Alpha  occ. eigenvalues --   -0.68288  -0.67985  -0.67983  -0.65095  -0.64170
 Alpha  occ. eigenvalues --   -0.62682  -0.61631  -0.60271  -0.59199  -0.59176
 Alpha  occ. eigenvalues --   -0.56836  -0.55402  -0.54392  -0.52333  -0.47136
 Alpha  occ. eigenvalues --   -0.46051  -0.43858
 Alpha virt. eigenvalues --   -0.26122  -0.14728  -0.14102  -0.12826  -0.11177
 Alpha virt. eigenvalues --   -0.10090  -0.09254  -0.07967  -0.07966  -0.07488
 Alpha virt. eigenvalues --   -0.07203  -0.07152  -0.05660  -0.05585  -0.05369

 Mulliken charges:
               1
     1  C    0.072324
     2  C   -0.397973
     3  C   -0.431422
     4  C    0.031277
     5  C   -0.014874
     6  C   -0.446277
     7  C   -0.407850
     8  C    0.103864
     9  C   -0.342280
    10  C    0.081720
    11  C   -0.636422
    12  C    0.699818
    13  C   -0.613111
    14  C    0.674513
    15  H    0.240066
    16  H    0.261865
    17  H    0.252264
    18  H    0.225687
    19  H    0.190833
    20  H    0.220371
    21  H    0.247025
    22  H    0.252433
    23  H    0.236718
    24  H    0.249715
    25  H    0.249713
 Sum of Mulliken charges =   1.00000

 Dipole moment (field-independent basis, Debye):
    X=              0.9925    Y=              0.1759    Z=              0.0000  Tot=              1.0080
 Quadrupole moment (field-independent basis, Debye-Ang):
   XX=            -30.7832   YY=            -56.1932   ZZ=            -84.2654
   XY=              0.0815   XZ=              0.0001   YZ=             -0.0000

 Normal termination of Gaussian 16 at Thu Jul 14 17:13:21 2022.
