 Gaussian 16, Revision C.01,
 Gaussian 16:  ES64L-G16RevC.01  3-Jul-2019

 -------------------------------------------
 #n M062X/6-311++G(d,p) SP pop=reg formcheck
 -------------------------------------------

 -----
 SP_-5
 -----
 Symbolic Z-matrix:
 Charge =  1 Multiplicity = 1

                         Standard orientation:
 ---------------------------------------------------------------------
 Center     Atomic      Atomic             Coordinates (Angstroms)
 Number     Number       Type             X           Y           Z
 ---------------------------------------------------------------------
      1          6           0        2.485505   -1.371238    0.000000
      2          6           0        3.698368   -0.680242    0.000000
      3          6           0        3.689514    0.713550    0.000000
      4          6           0        2.484295    1.408270    0.000000
      5          6           0       -2.453529    1.414072    0.000000
      6          6           0       -3.695402    0.717881    0.000000
      7          6           0       -3.721441   -0.666629    0.000000
      8          6           0       -2.511198   -1.356957    0.000000
      9          6           0       -0.008219   -1.457632    0.000000
     10          6           0        0.020474    1.433096    0.000000
     11          6           0        1.268227   -0.688750    0.000000
     12          6           0        1.246997    0.729596    0.000000
     13          6           0       -1.260914   -0.668748    0.000000
     14          6           0       -1.234171    0.734584    0.000000
     15          1           0        2.485300   -2.456418    0.000000
     16          1           0        4.634386   -1.224007    0.000000
     17          1           0        4.622728    1.262838    0.000000
     18          1           0        2.486528    2.492549    0.000000
     19          1           0        0.021254    2.516087    0.000000
     20          1           0       -2.460654    2.498993    0.000000
     21          1           0       -4.616857    1.287575    0.000000
     22          1           0       -4.659723   -1.204345    0.000000
     23          1           0       -2.504720   -2.442413    0.000000
     24          1           0       -0.029610   -2.147984    0.863616
     25          1           0       -0.029661   -2.147983   -0.863616
 ---------------------------------------------------------------------

 SCF Done:  E(RM062X) =  -539.757907661     A.U. after   15 cycles

 The electronic state is 1-A.
 Alpha  occ. eigenvalues --  -10.77757 -10.73563 -10.73120 -10.72732 -10.72362
 Alpha  occ. eigenvalues --  -10.71669 -10.71551 -10.71266 -10.71070 -10.70672
 Alpha  occ. eigenvalues --  -10.70178 -10.69984 -10.69849 -10.69620  -1.16241
 Alpha  occ. eigenvalues --   -1.12265  -1.06766  -1.05596  -1.01174  -1.00099
 Alpha  occ. eigenvalues --   -0.95644  -0.90941  -0.86292  -0.85782  -0.83734
 Alpha  occ. eigenvalues --   -0.78321  -0.75882  -0.74282  -0.69532  -0.69182
 Alpha  occ. eigenvalues --   -0.68393  -0.68075  -0.67997  -0.64770  -0.64205
 Alpha  occ. eigenvalues --   -0.62896  -0.61754  -0.60023  -0.59431  -0.59078
 Alpha  occ. eigenvalues --   -0.56865  -0.55267  -0.54682  -0.52331  -0.46691
 Alpha  occ. eigenvalues --   -0.46013  -0.44309
 Alpha virt. eigenvalues --   -0.26107  -0.14713  -0.14138  -0.12839  -0.11169
 Alpha virt. eigenvalues --   -0.10086  -0.09234  -0.08006  -0.07980  -0.07481
 Alpha virt. eigenvalues --   -0.07198  -0.07159  -0.05657  -0.05591  -0.05358

 Mulliken charges:
               1
     1  C    0.080833
     2  C   -0.401120
     3  C   -0.435222
     4  C    0.019104
     5  C   -0.002142
     6  C   -0.441941
     7  C   -0.405686
     8  C    0.095234
     9  C   -0.339524
    10  C    0.084278
    11  C   -0.633974
    12  C    0.694884
    13  C   -0.623997
    14  C    0.682815
    15  H    0.239124
    16  H    0.259244
    17  H    0.250882
    18  H    0.224195
    19  H    0.191351
    20  H    0.221748
    21  H    0.248489
    22  H    0.254941
    23  H    0.237576
    24  H    0.249454
    25  H    0.249453
 Sum of Mulliken charges =   1.00000

 Dipole moment (field-independent basis, Debye):
    X=              0.4528    Y=              0.1940    Z=              0.0000  Tot=              0.4926
 Quadrupole moment (field-independent basis, Debye-Ang):
   XX=            -30.8675   YY=            -56.1799   ZZ=            -84.2753
   XY=              0.0375   XZ=              0.0000   YZ=             -0.0000

 Normal termination of Gaussian 16 at Thu Jul 14 16:57:37 2022.
