 Gaussian 16, Revision C.01,
 Gaussian 16:  ES64L-G16RevC.01  3-Jul-2019

 -------------------------------------------
 #n M062X/6-311++G(d,p) SP pop=reg formcheck
 -------------------------------------------

 ------
 SP_-18
 ------
 Symbolic Z-matrix:
 Charge =  1 Multiplicity = 1

                         Standard orientation:
 ---------------------------------------------------------------------
 Center     Atomic      Atomic             Coordinates (Angstroms)
 Number     Number       Type             X           Y           Z
 ---------------------------------------------------------------------
      1          6           0        2.451655   -1.389414    0.000000
      2          6           0        3.668197   -0.697291    0.000000
      3          6           0        3.681833    0.707873    0.000000
      4          6           0        2.524307    1.400142    0.000000
      5          6           0       -2.413564    1.421011    0.000000
      6          6           0       -3.703038    0.723437    0.000000
      7          6           0       -3.751247   -0.648312    0.000000
      8          6           0       -2.544138   -1.338025    0.000000
      9          6           0       -0.029574   -1.456486    0.000000
     10          6           0        0.073696    1.432327    0.000000
     11          6           0        1.277383   -0.715106    0.000000
     12          6           0        1.263709    0.722864    0.000000
     13          6           0       -1.251059   -0.643112    0.000000
     14          6           0       -1.217543    0.740814    0.000000
     15          1           0        2.459947   -2.474336    0.000000
     16          1           0        4.601148   -1.249038    0.000000
     17          1           0        4.630024    1.230529    0.000000
     18          1           0        2.520164    2.483592    0.000000
     19          1           0        0.076500    2.515212    0.000000
     20          1           0       -2.427043    2.506774    0.000000
     21          1           0       -4.608901    1.319545    0.000000
     22          1           0       -4.692346   -1.178289    0.000000
     23          1           0       -2.529839   -2.423932    0.000000
     24          1           0       -0.106584   -2.147197    0.863216
     25          1           0       -0.106769   -2.147195   -0.863216
 ---------------------------------------------------------------------

 SCF Done:  E(RM062X) =  -539.744549135     A.U. after   16 cycles

 The electronic state is 1-A.
 Alpha  occ. eigenvalues --  -10.77553 -10.74081 -10.73106 -10.72760 -10.72518
 Alpha  occ. eigenvalues --  -10.72100 -10.71794 -10.71084 -10.70682 -10.70416
 Alpha  occ. eigenvalues --  -10.70112 -10.69753 -10.69606 -10.69303  -1.16445
 Alpha  occ. eigenvalues --   -1.12295  -1.06754  -1.05869  -1.01128  -1.00511
 Alpha  occ. eigenvalues --   -0.95302  -0.90912  -0.86339  -0.85724  -0.83707
 Alpha  occ. eigenvalues --   -0.78173  -0.76123  -0.74182  -0.69989  -0.69212
 Alpha  occ. eigenvalues --   -0.68097  -0.67963  -0.67838  -0.65561  -0.64131
 Alpha  occ. eigenvalues --   -0.62417  -0.61386  -0.60591  -0.59330  -0.58916
 Alpha  occ. eigenvalues --   -0.56776  -0.55525  -0.53961  -0.52338  -0.47828
 Alpha  occ. eigenvalues --   -0.46087  -0.43196
 Alpha virt. eigenvalues --   -0.26155  -0.14755  -0.14032  -0.12793  -0.11195
 Alpha virt. eigenvalues --   -0.10100  -0.09293  -0.07937  -0.07892  -0.07500
 Alpha virt. eigenvalues --   -0.07213  -0.07134  -0.05665  -0.05574  -0.05390

 Mulliken charges:
               1
     1  C    0.062644
     2  C   -0.394243
     3  C   -0.427091
     4  C    0.043370
     5  C   -0.029785
     6  C   -0.451665
     7  C   -0.409767
     8  C    0.113558
     9  C   -0.348914
    10  C    0.075599
    11  C   -0.637307
    12  C    0.703503
    13  C   -0.593604
    14  C    0.666545
    15  H    0.241151
    16  H    0.264925
    17  H    0.253800
    18  H    0.227392
    19  H    0.189793
    20  H    0.218940
    21  H    0.245310
    22  H    0.249613
    23  H    0.235870
    24  H    0.250184
    25  H    0.250178
 Sum of Mulliken charges =   1.00000

 Dipole moment (field-independent basis, Debye):
    X=              1.6116    Y=              0.1379    Z=              0.0000  Tot=              1.6175
 Quadrupole moment (field-independent basis, Debye-Ang):
   XX=            -30.6062   YY=            -56.2211   ZZ=            -84.2449
   XY=              0.1299   XZ=              0.0002   YZ=             -0.0000

 Normal termination of Gaussian 16 at Thu Jul 14 17:33:21 2022.
