 Gaussian 16, Revision C.01,
 Gaussian 16:  ES64L-G16RevC.01  3-Jul-2019

 -------------------------------------------
 #n M062X/6-311++G(d,p) SP pop=reg formcheck
 -------------------------------------------

 ------
 SP_-12
 ------
 Symbolic Z-matrix:
 Charge =  1 Multiplicity = 1

                         Standard orientation:
 ---------------------------------------------------------------------
 Center     Atomic      Atomic             Coordinates (Angstroms)
 Number     Number       Type             X           Y           Z
 ---------------------------------------------------------------------
      1          6           0        2.467293   -1.381081    0.000000
      2          6           0        3.682127   -0.689477    0.000000
      3          6           0        3.685363    0.710471    0.000000
      4          6           0        2.505839    1.403956    0.000000
      5          6           0       -2.432004    1.417875    0.000000
      6          6           0       -3.699497    0.720856    0.000000
      7          6           0       -3.737499   -0.656814    0.000000
      8          6           0       -2.528954   -1.346813    0.000000
      9          6           0       -0.019721   -1.457045    0.000000
     10          6           0        0.049134    1.432771    0.000000
     11          6           0        1.273197   -0.702921    0.000000
     12          6           0        1.256000    0.725996    0.000000
     13          6           0       -1.255647   -0.654920    0.000000
     14          6           0       -1.225220    0.737965    0.000000
     15          1           0        2.471663   -2.466098    0.000000
     16          1           0        4.616502   -1.237543    0.000000
     17          1           0        4.626685    1.245442    0.000000
     18          1           0        2.504641    2.487769    0.000000
     19          1           0        0.051006    2.515702    0.000000
     20          1           0       -2.442551    2.503231    0.000000
     21          1           0       -4.612599    1.304799    0.000000
     22          1           0       -4.677306   -1.190363    0.000000
     23          1           0       -2.518264   -2.432489    0.000000
     24          1           0       -0.071060   -2.147689    0.863401
     25          1           0       -0.071183   -2.147688   -0.863401
 ---------------------------------------------------------------------

 SCF Done:  E(RM062X) =  -539.752619038     A.U. after   15 cycles

 The electronic state is 1-A.
 Alpha  occ. eigenvalues --  -10.77675 -10.73851 -10.72950 -10.72797 -10.72194
 Alpha  occ. eigenvalues --  -10.72066 -10.71916 -10.71075 -10.70958 -10.70308
 Alpha  occ. eigenvalues --  -10.70094 -10.69996 -10.69846 -10.69450  -1.16324
 Alpha  occ. eigenvalues --   -1.12278  -1.06760  -1.05707  -1.01154  -1.00281
 Alpha  occ. eigenvalues --   -0.95491  -0.90933  -0.86313  -0.85758  -0.83724
 Alpha  occ. eigenvalues --   -0.78261  -0.75986  -0.74235  -0.69757  -0.69176
 Alpha  occ. eigenvalues --   -0.68265  -0.67982  -0.67964  -0.65159  -0.64164
 Alpha  occ. eigenvalues --   -0.62643  -0.61601  -0.60316  -0.59198  -0.59158
 Alpha  occ. eigenvalues --   -0.56829  -0.55423  -0.54335  -0.52334  -0.47228
 Alpha  occ. eigenvalues --   -0.46056  -0.43768
 Alpha virt. eigenvalues --   -0.26126  -0.14731  -0.14093  -0.12822  -0.11179
 Alpha virt. eigenvalues --   -0.10091  -0.09259  -0.07962  -0.07958  -0.07489
 Alpha virt. eigenvalues --   -0.07204  -0.07150  -0.05660  -0.05584  -0.05371

 Mulliken charges:
               1
     1  C    0.070920
     2  C   -0.397440
     3  C   -0.430800
     4  C    0.033167
     5  C   -0.017009
     6  C   -0.447026
     7  C   -0.408167
     8  C    0.105281
     9  C   -0.343007
    10  C    0.081060
    11  C   -0.636645
    12  C    0.700502
    13  C   -0.610816
    14  C    0.673235
    15  H    0.240223
    16  H    0.262303
    17  H    0.252489
    18  H    0.225935
    19  H    0.190712
    20  H    0.220154
    21  H    0.246780
    22  H    0.252023
    23  H    0.236586
    24  H    0.249771
    25  H    0.249769
 Sum of Mulliken charges =   1.00000

 Dipole moment (field-independent basis, Debye):
    X=              1.0818    Y=              0.1715    Z=              0.0000  Tot=              1.0953
 Quadrupole moment (field-independent basis, Debye-Ang):
   XX=            -30.7630   YY=            -56.1963   ZZ=            -84.2630
   XY=              0.0887   XZ=              0.0001   YZ=             -0.0000

 Normal termination of Gaussian 16 at Thu Jul 14 17:16:09 2022.
