 Gaussian 16, Revision C.01,
 Gaussian 16:  ES64L-G16RevC.01  3-Jul-2019

 -------------------------------------------
 #n M062X/6-311++G(d,p) SP pop=reg formcheck
 -------------------------------------------

 ------
 SP_-17
 ------
 Symbolic Z-matrix:
 Charge =  1 Multiplicity = 1

                         Standard orientation:
 ---------------------------------------------------------------------
 Center     Atomic      Atomic             Coordinates (Angstroms)
 Number     Number       Type             X           Y           Z
 ---------------------------------------------------------------------
      1          6           0        2.454263   -1.388032    0.000000
      2          6           0        3.670519   -0.695996    0.000000
      3          6           0        3.682419    0.708303    0.000000
      4          6           0        2.521229    1.400785    0.000000
      5          6           0       -2.416637    1.420497    0.000000
      6          6           0       -3.702446    0.723005    0.000000
      7          6           0       -3.748957   -0.649735    0.000000
      8          6           0       -2.541609   -1.339495    0.000000
      9          6           0       -0.027932   -1.456582    0.000000
     10          6           0        0.069602    1.432412    0.000000
     11          6           0        1.276690   -0.713073    0.000000
     12          6           0        1.262425    0.723389    0.000000
     13          6           0       -1.251829   -0.645077    0.000000
     14          6           0       -1.218823    0.740342    0.000000
     15          1           0        2.461901   -2.472967    0.000000
     16          1           0        4.603708   -1.247129    0.000000
     17          1           0        4.629471    1.233014    0.000000
     18          1           0        2.517577    2.484293    0.000000
     19          1           0        0.072252    2.515304    0.000000
     20          1           0       -2.429627    2.506190    0.000000
     21          1           0       -4.609520    1.317088    0.000000
     22          1           0       -4.689841   -1.180307    0.000000
     23          1           0       -2.527912   -2.425362    0.000000
     24          1           0       -0.100664   -2.147294    0.863247
     25          1           0       -0.100838   -2.147293   -0.863247
 ---------------------------------------------------------------------

 SCF Done:  E(RM062X) =  -539.746124010     A.U. after   16 cycles

 The electronic state is 1-A.
 Alpha  occ. eigenvalues --  -10.77577 -10.74044 -10.73082 -10.72665 -10.72565
 Alpha  occ. eigenvalues --  -10.72072 -10.71841 -10.71082 -10.70728 -10.70398
 Alpha  occ. eigenvalues --  -10.70093 -10.69778 -10.69675 -10.69328  -1.16422
 Alpha  occ. eigenvalues --   -1.12291  -1.06754  -1.05838  -1.01133  -1.00470
 Alpha  occ. eigenvalues --   -0.95335  -0.90917  -0.86335  -0.85731  -0.83710
 Alpha  occ. eigenvalues --   -0.78190  -0.76098  -0.74191  -0.69950  -0.69204
 Alpha  occ. eigenvalues --   -0.68127  -0.67967  -0.67859  -0.65493  -0.64137
 Alpha  occ. eigenvalues --   -0.62452  -0.61424  -0.60545  -0.59309  -0.58956
 Alpha  occ. eigenvalues --   -0.56786  -0.55510  -0.54027  -0.52337  -0.47723
 Alpha  occ. eigenvalues --   -0.46082  -0.43294
 Alpha virt. eigenvalues --   -0.26149  -0.14751  -0.14043  -0.12799  -0.11192
 Alpha virt. eigenvalues --   -0.10098  -0.09287  -0.07942  -0.07904  -0.07498
 Alpha virt. eigenvalues --   -0.07212  -0.07138  -0.05664  -0.05576  -0.05386

 Mulliken charges:
               1
     1  C    0.064004
     2  C   -0.394773
     3  C   -0.427708
     4  C    0.041821
     5  C   -0.027666
     6  C   -0.450877
     7  C   -0.409538
     8  C    0.112209
     9  C   -0.347751
    10  C    0.076694
    11  C   -0.637256
    12  C    0.703148
    13  C   -0.596914
    14  C    0.667527
    15  H    0.240999
    16  H    0.264489
    17  H    0.253586
    18  H    0.227154
    19  H    0.189969
    20  H    0.219131
    21  H    0.245555
    22  H    0.250008
    23  H    0.235980
    24  H    0.250107
    25  H    0.250102
 Sum of Mulliken charges =   1.00000

 Dipole moment (field-independent basis, Debye):
    X=              1.5241    Y=              0.1444    Z=              0.0000  Tot=              1.5309
 Quadrupole moment (field-independent basis, Debye-Ang):
   XX=            -30.6365   YY=            -56.2163   ZZ=            -84.2484
   XY=              0.1232   XZ=              0.0002   YZ=             -0.0000

 Normal termination of Gaussian 16 at Thu Jul 14 17:30:27 2022.
