 Gaussian 16, Revision C.01,
 Gaussian 16:  ES64L-G16RevC.01  3-Jul-2019

 -------------------------------------------
 #n M062X/6-311++G(d,p) SP pop=reg formcheck
 -------------------------------------------

 ------
 SP_-14
 ------
 Symbolic Z-matrix:
 Charge =  1 Multiplicity = 1

                         Standard orientation:
 ---------------------------------------------------------------------
 Center     Atomic      Atomic             Coordinates (Angstroms)
 Number     Number       Type             X           Y           Z
 ---------------------------------------------------------------------
      1          6           0        2.462083   -1.383869    0.000000
      2          6           0        3.677485   -0.692093    0.000000
      3          6           0        3.684184    0.709601    0.000000
      4          6           0        2.511995    1.402697    0.000000
      5          6           0       -2.425856    1.418934    0.000000
      6          6           0       -3.700674    0.721713    0.000000
      7          6           0       -3.742083   -0.653989    0.000000
      8          6           0       -2.534019   -1.343893    0.000000
      9          6           0       -0.023006   -1.456864    0.000000
     10          6           0        0.057322    1.432640    0.000000
     11          6           0        1.274600   -0.706979    0.000000
     12          6           0        1.258571    0.724957    0.000000
     13          6           0       -1.254126   -0.650979    0.000000
     14          6           0       -1.222661    0.738920    0.000000
     15          1           0        2.467760   -2.468850    0.000000
     16          1           0        4.611386   -1.241386    0.000000
     17          1           0        4.627804    1.240471    0.000000
     18          1           0        2.509816    2.486385    0.000000
     19          1           0        0.059505    2.515555    0.000000
     20          1           0       -2.437381    2.504421    0.000000
     21          1           0       -4.611371    1.309716    0.000000
     22          1           0       -4.682322   -1.186347    0.000000
     23          1           0       -2.522126   -2.429642    0.000000
     24          1           0       -0.082902   -2.147550    0.863339
     25          1           0       -0.083046   -2.147548   -0.863339
 ---------------------------------------------------------------------

 SCF Done:  E(RM062X) =  -539.750295571     A.U. after   16 cycles

 The electronic state is 1-A.
 Alpha  occ. eigenvalues --  -10.77640 -10.73930 -10.73005 -10.72704 -10.72382
 Alpha  occ. eigenvalues --  -10.71980 -10.71977 -10.71077 -10.70867 -10.70345
 Alpha  occ. eigenvalues --  -10.70036 -10.69940 -10.69803 -10.69402  -1.16359
 Alpha  occ. eigenvalues --   -1.12283  -1.06758  -1.05754  -1.01146  -1.00352
 Alpha  occ. eigenvalues --   -0.95432  -0.90928  -0.86322  -0.85748  -0.83719
 Alpha  occ. eigenvalues --   -0.78235  -0.76027  -0.74218  -0.69832  -0.69185
 Alpha  occ. eigenvalues --   -0.68213  -0.67977  -0.67923  -0.65291  -0.64153
 Alpha  occ. eigenvalues --   -0.62564  -0.61536  -0.60407  -0.59242  -0.59077
 Alpha  occ. eigenvalues --   -0.56814  -0.55461  -0.54216  -0.52335  -0.47419
 Alpha  occ. eigenvalues --   -0.46066  -0.43583
 Alpha virt. eigenvalues --   -0.26134  -0.14739  -0.14075  -0.12814  -0.11184
 Alpha virt. eigenvalues --   -0.10094  -0.09269  -0.07955  -0.07938  -0.07492
 Alpha virt. eigenvalues --   -0.07207  -0.07146  -0.05662  -0.05581  -0.05377

 Mulliken charges:
               1
     1  C    0.068132
     2  C   -0.396371
     3  C   -0.429560
     4  C    0.036798
     5  C   -0.021279
     6  C   -0.448546
     7  C   -0.408759
     8  C    0.108086
     9  C   -0.344686
    10  C    0.079530
    11  C   -0.636977
    12  C    0.701724
    13  C   -0.605760
    14  C    0.670805
    15  H    0.240536
    16  H    0.263178
    17  H    0.252934
    18  H    0.226427
    19  H    0.190442
    20  H    0.219732
    21  H    0.246289
    22  H    0.251209
    23  H    0.236332
    24  H    0.249895
    25  H    0.249892
 Sum of Mulliken charges =   1.00000

 Dipole moment (field-independent basis, Debye):
    X=              1.2596    Y=              0.1618    Z=              0.0000  Tot=              1.2699
 Quadrupole moment (field-independent basis, Debye-Ang):
   XX=            -30.7175   YY=            -56.2035   ZZ=            -84.2577
   XY=              0.1027   XZ=              0.0001   YZ=             -0.0000

 Normal termination of Gaussian 16 at Thu Jul 14 17:21:57 2022.
