 Gaussian 16, Revision C.01,
 Gaussian 16:  ES64L-G16RevC.01  3-Jul-2019

 -------------------------------------------
 #n M062X/6-311++G(d,p) SP pop=reg formcheck
 -------------------------------------------

 ------
 SP_-19
 ------
 Symbolic Z-matrix:
 Charge =  1 Multiplicity = 1

                         Standard orientation:
 ---------------------------------------------------------------------
 Center     Atomic      Atomic             Coordinates (Angstroms)
 Number     Number       Type             X           Y           Z
 ---------------------------------------------------------------------
      1          6           0        2.449046   -1.390793    0.000000
      2          6           0        3.665874   -0.698584    0.000000
      3          6           0        3.681247    0.707444    0.000000
      4          6           0        2.527385    1.399496    0.000000
      5          6           0       -2.410492    1.421523    0.000000
      6          6           0       -3.703630    0.723869    0.000000
      7          6           0       -3.753537   -0.646887    0.000000
      8          6           0       -2.546665   -1.336552    0.000000
      9          6           0       -0.031215   -1.456388    0.000000
     10          6           0        0.077789    1.432238    0.000000
     11          6           0        1.278074   -0.717140    0.000000
     12          6           0        1.264993    0.722338    0.000000
     13          6           0       -1.250288   -0.641148    0.000000
     14          6           0       -1.216264    0.741284    0.000000
     15          1           0        2.457992   -2.475703    0.000000
     16          1           0        4.598587   -1.250944    0.000000
     17          1           0        4.630575    1.228044    0.000000
     18          1           0        2.522751    2.482888    0.000000
     19          1           0        0.080749    2.515116    0.000000
     20          1           0       -2.424460    2.507357    0.000000
     21          1           0       -4.608280    1.322001    0.000000
     22          1           0       -4.694850   -1.176268    0.000000
     23          1           0       -2.531764   -2.422502    0.000000
     24          1           0       -0.112504   -2.147094    0.863185
     25          1           0       -0.112699   -2.147091   -0.863185
 ---------------------------------------------------------------------

 SCF Done:  E(RM062X) =  -539.742881512     A.U. after   16 cycles

 The electronic state is 1-A.
 Alpha  occ. eigenvalues --  -10.77528 -10.74118 -10.73129 -10.72855 -10.72472
 Alpha  occ. eigenvalues --  -10.72129 -10.71747 -10.71085 -10.70635 -10.70433
 Alpha  occ. eigenvalues --  -10.70130 -10.69732 -10.69534 -10.69278  -1.16470
 Alpha  occ. eigenvalues --   -1.12298  -1.06753  -1.05902  -1.01123  -1.00553
 Alpha  occ. eigenvalues --   -0.95269  -0.90907  -0.86344  -0.85718  -0.83704
 Alpha  occ. eigenvalues --   -0.78156  -0.76149  -0.74173  -0.70030  -0.69219
 Alpha  occ. eigenvalues --   -0.68066  -0.67960  -0.67816  -0.65628  -0.64126
 Alpha  occ. eigenvalues --   -0.62383  -0.61347  -0.60637  -0.59349  -0.58876
 Alpha  occ. eigenvalues --   -0.56765  -0.55539  -0.53894  -0.52339  -0.47933
 Alpha  occ. eigenvalues --   -0.46093  -0.43097
 Alpha virt. eigenvalues --   -0.26161  -0.14759  -0.14020  -0.12787  -0.11198
 Alpha virt. eigenvalues --   -0.10102  -0.09300  -0.07933  -0.07880  -0.07502
 Alpha virt. eigenvalues --   -0.07215  -0.07131  -0.05666  -0.05572  -0.05394

 Mulliken charges:
               1
     1  C    0.061293
     2  C   -0.393715
     3  C   -0.426473
     4  C    0.044850
     5  C   -0.031899
     6  C   -0.452459
     7  C   -0.409979
     8  C    0.114891
     9  C   -0.350146
    10  C    0.074427
    11  C   -0.637344
    12  C    0.703794
    13  C   -0.590103
    14  C    0.665622
    15  H    0.241302
    16  H    0.265361
    17  H    0.254012
    18  H    0.227629
    19  H    0.189609
    20  H    0.218753
    21  H    0.245067
    22  H    0.249221
    23  H    0.235765
    24  H    0.250264
    25  H    0.250258
 Sum of Mulliken charges =   1.00000

 Dipole moment (field-independent basis, Debye):
    X=              1.6987    Y=              0.1310    Z=              0.0000  Tot=              1.7038
 Quadrupole moment (field-independent basis, Debye-Ang):
   XX=            -30.5742   YY=            -56.2261   ZZ=            -84.2411
   XY=              0.1364   XZ=              0.0002   YZ=             -0.0000

 Normal termination of Gaussian 16 at Thu Jul 14 17:35:57 2022.
