 Gaussian 16, Revision C.01,
 Gaussian 16:  ES64L-G16RevC.01  3-Jul-2019

 -------------------------------------------
 #n M062X/6-311++G(d,p) SP pop=reg formcheck
 -------------------------------------------

 -----
 SP_-4
 -----
 Symbolic Z-matrix:
 Charge =  1 Multiplicity = 1

                         Standard orientation:
 ---------------------------------------------------------------------
 Center     Atomic      Atomic             Coordinates (Angstroms)
 Number     Number       Type             X           Y           Z
 ---------------------------------------------------------------------
      1          6           0        2.488104   -1.369822    0.000000
      2          6           0        3.700687   -0.678913    0.000000
      3          6           0        3.690110    0.713994    0.000000
      4          6           0        2.481218    1.408874    0.000000
      5          6           0       -2.456605    1.413516    0.000000
      6          6           0       -3.694820    0.717459    0.000000
      7          6           0       -3.719146   -0.668022    0.000000
      8          6           0       -2.508658   -1.358396    0.000000
      9          6           0       -0.006576   -1.457711    0.000000
     10          6           0        0.016379    1.433126    0.000000
     11          6           0        1.267509   -0.686730    0.000000
     12          6           0        1.245710    0.730105    0.000000
     13          6           0       -1.261659   -0.670728    0.000000
     14          6           0       -1.235449    0.734096    0.000000
     15          1           0        2.487246   -2.455030    0.000000
     16          1           0        4.636938   -1.222063    0.000000
     17          1           0        4.622157    1.265323    0.000000
     18          1           0        2.483940    2.493224    0.000000
     19          1           0        0.017003    2.516126    0.000000
     20          1           0       -2.463241    2.498379    0.000000
     21          1           0       -4.617460    1.285112    0.000000
     22          1           0       -4.657208   -1.206333    0.000000
     23          1           0       -2.502782   -2.443825    0.000000
     24          1           0       -0.023688   -2.148001    0.863647
     25          1           0       -0.023729   -2.148001   -0.863647
 ---------------------------------------------------------------------

 SCF Done:  E(RM062X) =  -539.758305757     A.U. after   15 cycles

 The electronic state is 1-A.
 Alpha  occ. eigenvalues --  -10.77764 -10.73520 -10.73165 -10.72698 -10.72402
 Alpha  occ. eigenvalues --  -10.71631 -10.71461 -10.71309 -10.71070 -10.70757
 Alpha  occ. eigenvalues --  -10.70158 -10.70003 -10.69827 -10.69644  -1.16235
 Alpha  occ. eigenvalues --   -1.12264  -1.06767  -1.05587  -1.01176  -1.00084
 Alpha  occ. eigenvalues --   -0.95656  -0.90942  -0.86290  -0.85783  -0.83735
 Alpha  occ. eigenvalues --   -0.78326  -0.75873  -0.74285  -0.69509  -0.69186
 Alpha  occ. eigenvalues --   -0.68403  -0.68084  -0.67998  -0.64732  -0.64211
 Alpha  occ. eigenvalues --   -0.62921  -0.61766  -0.59988  -0.59465  -0.59068
 Alpha  occ. eigenvalues --   -0.56867  -0.55245  -0.54718  -0.52331  -0.46642
 Alpha  occ. eigenvalues --   -0.46007  -0.44361
 Alpha virt. eigenvalues --   -0.26106  -0.14711  -0.14142  -0.12841  -0.11168
 Alpha virt. eigenvalues --   -0.10085  -0.09232  -0.08010  -0.07982  -0.07481
 Alpha virt. eigenvalues --   -0.07198  -0.07160  -0.05657  -0.05591  -0.05357

 Mulliken charges:
               1
     1  C    0.082260
     2  C   -0.401629
     3  C   -0.435871
     4  C    0.016966
     5  C   -0.000046
     6  C   -0.441246
     7  C   -0.405286
     8  C    0.093781
     9  C   -0.339338
    10  C    0.084475
    11  C   -0.633334
    12  C    0.693955
    13  C   -0.625386
    14  C    0.684263
    15  H    0.238969
    16  H    0.258810
    17  H    0.250646
    18  H    0.223948
    19  H    0.191403
    20  H    0.221988
    21  H    0.248731
    22  H    0.255366
    23  H    0.237728
    24  H    0.249423
    25  H    0.249423
 Sum of Mulliken charges =   1.00000

 Dipole moment (field-independent basis, Debye):
    X=              0.3624    Y=              0.1957    Z=              0.0000  Tot=              0.4118
 Quadrupole moment (field-independent basis, Debye-Ang):
   XX=            -30.8754   YY=            -56.1787   ZZ=            -84.2763
   XY=              0.0300   XZ=              0.0000   YZ=             -0.0000

 Normal termination of Gaussian 16 at Thu Jul 14 16:54:59 2022.
