 Gaussian 16, Revision C.01,
 Gaussian 16:  ES64L-G16RevC.01  3-Jul-2019

 -------------------------------------------
 #n M062X/6-311++G(d,p) SP pop=reg formcheck
 -------------------------------------------

 ------
 SP_-20
 ------
 Symbolic Z-matrix:
 Charge =  1 Multiplicity = 1

                         Standard orientation:
 ---------------------------------------------------------------------
 Center     Atomic      Atomic             Coordinates (Angstroms)
 Number     Number       Type             X           Y           Z
 ---------------------------------------------------------------------
      1          6           0        2.446436   -1.392170    0.000000
      2          6           0        3.663551   -0.699874    0.000000
      3          6           0        3.680662    0.707016    0.000000
      4          6           0        2.530463    1.398847    0.000000
      5          6           0       -2.407420    1.422031    0.000000
      6          6           0       -3.704224    0.724303    0.000000
      7          6           0       -3.755826   -0.645460    0.000000
      8          6           0       -2.549192   -1.335077    0.000000
      9          6           0       -0.032857   -1.456288    0.000000
     10          6           0        0.081882    1.432144    0.000000
     11          6           0        1.278763   -0.719176    0.000000
     12          6           0        1.266277    0.721811    0.000000
     13          6           0       -1.249515   -0.639185    0.000000
     14          6           0       -1.214984    0.741753    0.000000
     15          1           0        2.456037   -2.477069    0.000000
     16          1           0        4.596025   -1.252847    0.000000
     17          1           0        4.631126    1.225558    0.000000
     18          1           0        2.525338    2.482183    0.000000
     19          1           0        0.084997    2.515016    0.000000
     20          1           0       -2.421876    2.507937    0.000000
     21          1           0       -4.607658    1.324456    0.000000
     22          1           0       -4.697353   -1.174246    0.000000
     23          1           0       -2.533689   -2.421070    0.000000
     24          1           0       -0.118424   -2.146984    0.863154
     25          1           0       -0.118629   -2.146982   -0.863154
 ---------------------------------------------------------------------

 SCF Done:  E(RM062X) =  -539.741120784     A.U. after   16 cycles

 The electronic state is 1-A.
 Alpha  occ. eigenvalues --  -10.77502 -10.74154 -10.73152 -10.72950 -10.72426
 Alpha  occ. eigenvalues --  -10.72156 -10.71700 -10.71087 -10.70588 -10.70450
 Alpha  occ. eigenvalues --  -10.70148 -10.69712 -10.69462 -10.69252  -1.16496
 Alpha  occ. eigenvalues --   -1.12301  -1.06752  -1.05936  -1.01119  -1.00595
 Alpha  occ. eigenvalues --   -0.95235  -0.90901  -0.86349  -0.85711  -0.83701
 Alpha  occ. eigenvalues --   -0.78137  -0.76176  -0.74164  -0.70070  -0.69227
 Alpha  occ. eigenvalues --   -0.68035  -0.67956  -0.67796  -0.65695  -0.64120
 Alpha  occ. eigenvalues --   -0.62350  -0.61309  -0.60684  -0.59367  -0.58836
 Alpha  occ. eigenvalues --   -0.56753  -0.55551  -0.53826  -0.52339  -0.48040
 Alpha  occ. eigenvalues --   -0.46098  -0.42997
 Alpha virt. eigenvalues --   -0.26167  -0.14764  -0.14008  -0.12780  -0.11201
 Alpha virt. eigenvalues --   -0.10103  -0.09307  -0.07928  -0.07867  -0.07505
 Alpha virt. eigenvalues --   -0.07217  -0.07127  -0.05667  -0.05570  -0.05398

 Mulliken charges:
               1
     1  C    0.059950
     2  C   -0.393190
     3  C   -0.425855
     4  C    0.046259
     5  C   -0.034005
     6  C   -0.453258
     7  C   -0.410174
     8  C    0.116209
     9  C   -0.351446
    10  C    0.073176
    11  C   -0.637369
    12  C    0.704018
    13  C   -0.586406
    14  C    0.664761
    15  H    0.241451
    16  H    0.265796
    17  H    0.254222
    18  H    0.227863
    19  H    0.189417
    20  H    0.218572
    21  H    0.244824
    22  H    0.248833
    23  H    0.235663
    24  H    0.250348
    25  H    0.250341
 Sum of Mulliken charges =   1.00000

 Dipole moment (field-independent basis, Debye):
    X=              1.7855    Y=              0.1238    Z=              0.0000  Tot=              1.7898
 Quadrupole moment (field-independent basis, Debye-Ang):
   XX=            -30.5406   YY=            -56.2314   ZZ=            -84.2372
   XY=              0.1428   XZ=              0.0002   YZ=             -0.0000

 Normal termination of Gaussian 16 at Thu Jul 14 17:38:34 2022.
