 Gaussian 09, Revision D.01,
 Gaussian 09:  ES64L-G09RevD.01 24-Apr-2013

 ----------------------------------------------
 #n M062X/6-31G(d,p) TD=(nstates=3,root=1) Freq
 ----------------------------------------------

 -----
 Title
 -----
 Symbolic Z-matrix:
 Charge =  1 Multiplicity = 1

                         Standard orientation:
 ---------------------------------------------------------------------
 Center     Atomic      Atomic             Coordinates (Angstroms)
 Number     Number       Type             X           Y           Z
 ---------------------------------------------------------------------
      1          6           0       -3.688990    0.715251   -0.000010
      2          6           0       -2.466480    1.408961    0.000000
      3          6           0       -1.239070    0.731811    0.000010
      4          6           0       -1.264440   -0.677449    0.000010
      5          6           0       -2.496370   -1.361859    0.000000
      6          6           0       -3.707150   -0.672889   -0.000010
      7          6           0        0.000000    1.430271    0.000010
      8          6           0        0.000000   -1.456189    0.000020
      9          6           0        1.264440   -0.677449    0.000000
     10          6           0        1.239070    0.731811    0.000010
     11          6           0        2.466480    1.408961    0.000000
     12          1           0        2.469790    2.494391    0.000010
     13          6           0        3.688990    0.715251   -0.000010
     14          6           0        3.707150   -0.672889   -0.000020
     15          6           0        2.496370   -1.361859   -0.000010
     16          1           0        0.000000    2.514061    0.000020
     17          1           0       -4.616300    1.275851   -0.000020
     18          1           0       -2.469790    2.494391   -0.000010
     19          1           0       -2.490990   -2.447849    0.000010
     20          1           0       -4.644570   -1.213939   -0.000010
     21          1           0        0.000000   -2.150679    0.861660
     22          1           0        4.616300    1.275851   -0.000010
     23          1           0        4.644570   -1.213939   -0.000030
     24          1           0        2.490990   -2.447849   -0.000020
     25          1           0        0.000000   -2.150729   -0.861580
 ---------------------------------------------------------------------

 SCF Done:  E(RM062X) =  -539.647907158     A.U. after   16 cycles
 SCF Done:  E(RM062X) =  -539.647937317     A.U. after    8 cycles
 SCF Done:  E(RM062X) =  -539.647874454     A.U. after    9 cycles
 SCF Done:  E(RM062X) =  -539.647954566     A.U. after    8 cycles
 SCF Done:  E(RM062X) =  -539.647857172     A.U. after    9 cycles
 SCF Done:  E(RM062X) =  -539.647906913     A.U. after    6 cycles
 SCF Done:  E(RM062X) =  -539.647906913     A.U. after    7 cycles
 SCF Done:  E(RM062X) =  -539.647848763     A.U. after    8 cycles
 SCF Done:  E(RM062X) =  -539.647963143     A.U. after    9 cycles
 SCF Done:  E(RM062X) =  -539.647911390     A.U. after    7 cycles
 SCF Done:  E(RM062X) =  -539.647906631     A.U. after    7 cycles
 SCF Done:  E(RM062X) =  -539.647906391     A.U. after    7 cycles
 SCF Done:  E(RM062X) =  -539.647907111     A.U. after    5 cycles
 SCF Done:  E(RM062X) =  -539.647907110     A.U. after    6 cycles
 SCF Done:  E(RM062X) =  -539.647907061     A.U. after    6 cycles
 SCF Done:  E(RM062X) =  -539.647907063     A.U. after    7 cycles
 SCF Done:  E(RM062X) =  -539.647914669     A.U. after    7 cycles
 SCF Done:  E(RM062X) =  -539.647899114     A.U. after    7 cycles
 SCF Done:  E(RM062X) =  -539.647909125     A.U. after    6 cycles
 SCF Done:  E(RM062X) =  -539.647904431     A.U. after    7 cycles

 Excitation energies and oscillator strengths:

 Excited state symmetry could not be determined.
 Excited State   1:      Singlet-?Sym    2.8393 eV  436.67 nm  f=0.0311  <S**2>=0.000
      47 -> 48         0.70442
 This state for optimization and/or second-order correction.
 Total Energy, E(TD-HF/TD-KS) =  -539.543561062
 Copying the excited state density for this state as the 1-particle RhoCI density.

 Excited state symmetry could not be determined.
 Excited State   2:      Singlet-?Sym    3.2658 eV  379.65 nm  f=0.0011  <S**2>=0.000
      45 -> 48         0.63439
      46 -> 48        -0.30139

 Excited state symmetry could not be determined.
 Excited State   3:      Singlet-?Sym    3.5107 eV  353.16 nm  f=0.5637  <S**2>=0.000
      45 -> 48         0.30319
      46 -> 48         0.63046

 Alpha  occ. eigenvalues --  -10.78301 -10.73765 -10.73765 -10.72937 -10.72936
 Alpha  occ. eigenvalues --  -10.71977 -10.71977 -10.71652 -10.71652 -10.71597
 Alpha  occ. eigenvalues --  -10.70571 -10.70571 -10.70259 -10.70259  -1.15804
 Alpha  occ. eigenvalues --   -1.11788  -1.06314  -1.05147  -1.00714  -0.99580
 Alpha  occ. eigenvalues --   -0.95216  -0.90461  -0.85789  -0.85283  -0.83221
 Alpha  occ. eigenvalues --   -0.77835  -0.75277  -0.73708  -0.68936  -0.68703
 Alpha  occ. eigenvalues --   -0.67884  -0.67493  -0.67472  -0.64083  -0.63643
 Alpha  occ. eigenvalues --   -0.62386  -0.61230  -0.59412  -0.59003  -0.58488
 Alpha  occ. eigenvalues --   -0.56271  -0.54614  -0.54195  -0.51785  -0.45972
 Alpha  occ. eigenvalues --   -0.45417  -0.43905
 Alpha virt. eigenvalues --   -0.25435  -0.13127  -0.13000  -0.11527  -0.05836
 Alpha virt. eigenvalues --    0.00392   0.00904   0.01135   0.02973   0.03677
 Alpha virt. eigenvalues --    0.05474   0.05994   0.07408   0.08060   0.08175

 Mulliken charges:
               1
     1  C   -0.099826
     2  C   -0.112892
     3  C    0.092782
     4  C    0.048554
     5  C   -0.115509
     6  C   -0.105951
     7  C   -0.182269
     8  C   -0.339069
     9  C    0.048554
    10  C    0.092782
    11  C   -0.112892
    12  H    0.185620
    13  C   -0.099826
    14  C   -0.105951
    15  C   -0.115509
    16  H    0.169524
    17  H    0.193900
    18  H    0.185620
    19  H    0.178273
    20  H    0.189499
    21  H    0.221481
    22  H    0.193900
    23  H    0.189499
    24  H    0.178273
    25  H    0.221429
 Sum of Mulliken charges =   1.00000

 Dipole moment (field-independent basis, Debye):
    X=              0.0000    Y=             -0.6556    Z=             -0.0004  Tot=              0.6556
 Quadrupole moment (field-independent basis, Debye-Ang):
   XX=            -26.2163   YY=            -55.5713   ZZ=            -82.5559
   XY=              0.0000   XZ=              0.0000   YZ=              0.0011

 ******    1 imaginary frequencies (negative Signs) ******

                      1                      2                      3
                      A                      A                      A
 Frequencies --   -496.4577                47.8681                96.9520
 Red. masses --      5.9078                 3.7511                 3.6084
 Frc consts  --      0.8579                 0.0051                 0.0200
 IR Inten    --  27589.0405                 0.0630                 0.0001

                      4                      5                      6
                      A                      A                      A
 Frequencies --    188.3992               218.8987               226.1597
 Red. masses --      1.9946                 4.6689                 4.3803
 Frc consts  --      0.0417                 0.1318                 0.1320
 IR Inten    --     11.9101                 0.0000                 0.0286

                      7                      8                      9
                      A                      A                      A
 Frequencies --    273.6319               376.1129               379.1749
 Red. masses --      2.7877                 2.5124                 6.8179
 Frc consts  --      0.1230                 0.2094                 0.5775
 IR Inten    --      3.2878                12.0633                 0.0150

                     10                     11                     12
                      A                      A                      A
 Frequencies --    379.7055               408.1440               465.9043
 Red. masses --      4.4531                 2.9137                 3.0311
 Frc consts  --      0.3783                 0.2860                 0.3876
 IR Inten    --     79.6896                 0.0001                 0.0000

                     13                     14                     15
                      A                      A                      A
 Frequencies --    488.9815               556.1655               558.4014
 Red. masses --      2.3382                 6.6931                 2.2946
 Frc consts  --      0.3294                 1.2198                 0.4215
 IR Inten    --      5.8724               342.6412                 0.0568

                     16                     17                     18
                      A                      A                      A
 Frequencies --    607.4474               647.5440               666.0551
 Red. masses --      6.4316                 2.9804                 5.9271
 Frc consts  --      1.3983                 0.7363                 1.5492
 IR Inten    --      0.7958                 0.0000                 0.5910

                     19                     20                     21
                      A                      A                      A
 Frequencies --    719.2835               754.3981               761.0205
 Red. masses --      1.2310                 1.2355                 5.2531
 Frc consts  --      0.3752                 0.4143                 1.7925
 IR Inten    --     13.7552                 0.0030                 0.8205

                     22                     23                     24
                      A                      A                      A
 Frequencies --    771.3346               811.3729               858.5931
 Red. masses --      1.4770                 4.8498                 2.4520
 Frc consts  --      0.5178                 1.8811                 1.0650
 IR Inten    --     91.1544              2976.8101              6124.4603

                     25                     26                     27
                      A                      A                      A
 Frequencies --    863.2530               889.1657               891.0549
 Red. masses --      2.0472                 1.4563                 5.5878
 Frc consts  --      0.8988                 0.6784                 2.6140
 IR Inten    --     17.1799                 0.0002                 1.9557

                     28                     29                     30
                      A                      A                      A
 Frequencies --    905.1590               915.7091               973.5313
 Red. masses --      1.8595                 5.0584                 1.4039
 Frc consts  --      0.8976                 2.4991                 0.7840
 IR Inten    --      2.3654              1110.4994                 0.0000

                     31                     32                     33
                      A                      A                      A
 Frequencies --    982.1329              1008.9292              1011.5323
 Red. masses --      1.4597                 1.4391                 1.4272
 Frc consts  --      0.8296                 0.8631                 0.8604
 IR Inten    --      2.8979                 0.0000                 0.9805

                     34                     35                     36
                      A                      A                      A
 Frequencies --   1081.9706              1095.6236              1112.4072
 Red. masses --      2.2299                 1.9120                 1.8888
 Frc consts  --      1.5381                 1.3522                 1.3771
 IR Inten    --      1.8793               474.4498                 8.5418

                     37                     38                     39
                      A                      A                      A
 Frequencies --   1142.3911              1146.6590              1185.4258
 Red. masses --      1.1303                 1.5585                 1.1525
 Frc consts  --      0.8691                 1.2073                 0.9542
 IR Inten    --      0.0000                 0.0912                 7.7379

                     40                     41                     42
                      A                      A                      A
 Frequencies --   1195.1508              1210.8053              1241.8707
 Red. masses --      1.0930                 1.5033                 4.5565
 Frc consts  --      0.9198                 1.2985                 4.1403
 IR Inten    --      2.5427                 0.5315                 1.8569

                     43                     44                     45
                      A                      A                      A
 Frequencies --   1266.1277              1288.5011              1313.2828
 Red. masses --      1.8449                 3.3446                 1.4898
 Frc consts  --      1.7425                 3.2717                 1.5139
 IR Inten    --    311.3887                 1.6708                 1.9664

                     46                     47                     48
                      A                      A                      A
 Frequencies --   1338.4519              1357.5032              1379.7492
 Red. masses --      1.7945                 1.3473                 5.8879
 Frc consts  --      1.8941                 1.4628                 6.6041
 IR Inten    --   2324.9446                52.7325               310.0656

                     49                     50                     51
                      A                      A                      A
 Frequencies --   1390.2964              1397.7227              1447.1600
 Red. masses --      3.1375                 1.8796                 2.3357
 Frc consts  --      3.5731                 2.1635                 2.8821
 IR Inten    --      1.9732               120.3776               563.7478

                     52                     53                     54
                      A                      A                      A
 Frequencies --   1480.4040              1512.5613              1527.2042
 Red. masses --      2.2080                 3.1941                 2.6613
 Frc consts  --      2.8510                 4.3055                 3.6571
 IR Inten    --     74.5213               436.1592                 3.0785

                     55                     56                     57
                      A                      A                      A
 Frequencies --   1555.0258              1594.9847              1647.7663
 Red. masses --      2.9747                 4.0946                 5.9081
 Frc consts  --      4.2380                 6.1373                 9.4513
 IR Inten    --      0.8136               141.9075                 0.2776

                     58                     59                     60
                      A                      A                      A
 Frequencies --   1678.9036              2980.1062              2990.3889
 Red. masses --      6.9367                 1.0638                 1.0922
 Frc consts  --     11.5200                 5.5664                 5.7547
 IR Inten    --     21.6493                 7.3596                 3.1084

                     61                     62                     63
                      A                      A                      A
 Frequencies --   3211.0828              3211.4291              3219.4557
 Red. masses --      1.0910                 1.0915                 1.0918
 Frc consts  --      6.6278                 6.6322                 6.6675
 IR Inten    --     24.4967                 0.2652                 0.0217

                     64                     65                     66
                      A                      A                      A
 Frequencies --   3219.6092              3224.4128              3245.3043
 Red. masses --      1.0918                 1.0908                 1.0917
 Frc consts  --      6.6679                 6.6819                 6.7744
 IR Inten    --      0.0445                 0.0004                 4.2763

                     67                     68                     69
                      A                      A                      A
 Frequencies --   3245.4450              3256.8863              3257.4082
 Red. masses --      1.0915                 1.0983                 1.0989
 Frc consts  --      6.7740                 6.8638                 6.8700
 IR Inten    --      0.3049                40.4212                 0.2365

 - Thermochemistry -
 -------------------
 Temperature   298.150 Kelvin.  Pressure   1.00000 Atm.
 Atom     1 has atomic number  6 and mass  12.00000

 Molecular mass:   179.08608 amu.
 Principal axes and moments of inertia in atomic units:
                           1         2         3
     Eigenvalues --   847.088594070.873714907.27484
           X            1.00000   0.00000   0.00000
           Y            0.00000   1.00000   0.00000
           Z            0.00000   0.00000   1.00000
 This molecule is an asymmetric top.
 Rotational symmetry number  1.
 Warning -- assumption of classical behavior for rotation
           may cause significant error
 Rotational temperatures (Kelvin)      0.10225     0.02128     0.01765
 Rotational constants (GHZ):           2.13052     0.44333     0.36777
    1 imaginary frequencies ignored.
 Zero-point vibrational energy     528459.3 (Joules/Mol)
                                  126.30480 (Kcal/Mol)
 Warning -- explicit consideration of  15 degrees of freedom as
           vibrations may cause significant error
 Vibrational temperatures:     68.87   139.49   271.06   314.95   325.39
          (Kelvin)            393.69   541.14   545.55   546.31   587.23
                              670.33   703.53   800.20   803.41   873.98
                              931.67   958.30  1034.89  1085.41  1094.94
                             1109.78  1167.38  1235.32  1242.03  1279.31
                             1282.03  1302.32  1317.50  1400.69  1413.07
                             1451.62  1455.37  1556.71  1576.36  1600.50
                             1643.64  1649.78  1705.56  1719.55  1742.08
                             1786.77  1821.67  1853.86  1889.52  1925.73
                             1953.14  1985.15  2000.32  2011.01  2082.14
                             2129.97  2176.24  2197.30  2237.33  2294.82
                             2370.77  2415.56  4287.70  4302.50  4620.03
                             4620.52  4632.07  4632.29  4639.21  4669.26
                             4669.47  4685.93  4686.68

 Zero-point correction=                           0.201280 (Hartree/Particle)
 Thermal correction to Energy=                    0.211579
 Thermal correction to Enthalpy=                  0.212523
 Thermal correction to Gibbs Free Energy=         0.165158
 Sum of electronic and zero-point Energies=           -539.342281
 Sum of electronic and thermal Energies=              -539.331982
 Sum of electronic and thermal Enthalpies=            -539.331037
 Sum of electronic and thermal Free Energies=         -539.378403

                     E (Thermal)             CV                S
                      KCal/Mol        Cal/Mol-Kelvin    Cal/Mol-Kelvin
 Total                  132.768             42.683             99.688
 Electronic               0.000              0.000              0.000
 Translational            0.889              2.981             41.455
 Rotational               0.889              2.981             31.204
 Vibrational            130.990             36.722             27.029
 Vibration     1          0.595              1.978              4.904
 Vibration     2          0.603              1.951              3.515
 Vibration     3          0.633              1.856              2.244
 Vibration     4          0.647              1.812              1.968
 Vibration     5          0.650              1.801              1.909
 Vibration     6          0.676              1.722              1.573
 Vibration     7          0.747              1.521              1.055
 Vibration     8          0.749              1.515              1.042
 Vibration     9          0.750              1.513              1.040
 Vibration    10          0.773              1.453              0.933
 Vibration    11          0.823              1.326              0.749
 Vibration    12          0.845              1.274              0.686
 Vibration    13          0.912              1.126              0.532
 Vibration    14          0.914              1.121              0.527
 Vibration    15          0.966              1.016              0.437

 Normal termination of Gaussian 09 at Mon Aug  9 19:44:52 2021.
