============================== echo of input deck ==============================
echo

restart excnw-3

title excnw-3
charge 1

geometry units angstroms print xyz autosym
    C                   -1.37499289    -2.48436620     0.00000000
    C                   -0.67747098    -3.69731294     0.00000000
    C                    0.72698313    -3.70744206     0.00000000
    C                    1.42382632    -2.52074809     0.00000000
    C                    1.40223681     2.44840126     0.00000000
    C                    0.71843015     3.71484772     0.00000000
    C                   -0.66344317     3.75720588     0.00000000
    C                   -1.35271638     2.54927774     0.00000000
    C                   -1.47684008     0.02187814     0.00000000
    C                    1.43408786    -0.06590462     0.00000000
    C                   -0.70252814    -1.27379907     0.00000000
    C                    0.73727520    -1.26521037     0.00000000
    C                   -0.66079097     1.27165955     0.00000000
    C                    0.72044581     1.23112235     0.00000000
    H                   -2.45980490    -2.49808610     0.00000000
    H                   -1.22557490    -4.63121451     0.00000000
    H                    1.25885848    -4.65084891     0.00000000
    H                    2.50749651    -2.51986252     0.00000000
    H                    2.51599251    -0.06084223     0.00000000
    H                    2.48744688     2.45603892     0.00000000
    H                    1.30693738     4.62411412     0.00000000
    H                   -1.19702632     4.69793674     0.00000000
    H                   -2.43744361     2.54303373     0.00000000
    H                   -2.15524694     0.05913121     0.86713057
    H                   -2.15524694     0.05913121    -0.86713057
end

basis
  * library 6-311++G(2d,2p)
end

dft
  xc b3lyp
  mult 1
  iterations 300
end

tddft
  cis
  nroots 3
  notriplet
  target 1
  civecs
  grad
    root 1
  end
end

driver
  maxiter 50
end

task tddft optimize
================================================================================

         Total DFT energy =     -540.025518373093
  Root   1 singlet a'             0.082713527 a.u.                2.2508 eV
     Dipole Oscillator Strength                    0.0132647713
  Root   2 singlet a'             0.114427363 a.u.                3.1137 eV
     Dipole Oscillator Strength                    0.0167774735
  Root   3 singlet a'             0.129310450 a.u.                3.5187 eV
     Dipole Oscillator Strength                    0.6891899164
                         Root   1
@ Step       Energy      Delta E   Gmax     Grms     Xrms     Xmax   Walltime
@ ---- ---------------- -------- -------- -------- -------- -------- --------
@    0    -539.94280485  0.0D+00  0.00327  0.00102  0.00000  0.00000   2579.0
         Total DFT energy =     -540.026107402834
  Root   1 singlet a'             0.083130415 a.u.                2.2621 eV
     Dipole Oscillator Strength                    0.0133690409
  Root   2 singlet a'             0.114819883 a.u.                3.1244 eV
     Dipole Oscillator Strength                    0.0167943314
  Root   3 singlet a'             0.129924218 a.u.                3.5354 eV
     Dipole Oscillator Strength                    0.6915662524
         Total DFT energy =     -540.026107430417
  Root   1 singlet a'             0.083139855 a.u.                2.2624 eV
     Dipole Oscillator Strength                    0.0133722984
  Root   2 singlet a'             0.114824878 a.u.                3.1245 eV
     Dipole Oscillator Strength                    0.0167963949
  Root   3 singlet a'             0.129930766 a.u.                3.5356 eV
     Dipole Oscillator Strength                    0.6915540598
                         Root   1
@    1    -539.94296758 -1.6D-04  0.00090  0.00018  0.00731  0.01779   5886.7
         Total DFT energy =     -540.026214365776
  Root   1 singlet a'             0.083244152 a.u.                2.2652 eV
     Dipole Oscillator Strength                    0.0134828428
  Root   2 singlet a'             0.114823077 a.u.                3.1245 eV
     Dipole Oscillator Strength                    0.0167090087
  Root   3 singlet a'             0.129937289 a.u.                3.5358 eV
     Dipole Oscillator Strength                    0.6920134568
         Total DFT energy =     -540.026172605762
  Root   1 singlet a'             0.083190452 a.u.                2.2637 eV
     Dipole Oscillator Strength                    0.0134284417
  Root   2 singlet a'             0.114892676 a.u.                3.1264 eV
     Dipole Oscillator Strength                    0.0167638343
  Root   3 singlet a'             0.129943773 a.u.                3.5360 eV
     Dipole Oscillator Strength                    0.6919896279
                         Root   1
@    2    -539.94298215 -1.5D-05  0.00039  0.00008  0.00078  0.00267   9180.2
         Total DFT energy =     -540.026064484327
  Root   1 singlet a'             0.083090346 a.u.                2.2610 eV
     Dipole Oscillator Strength                    0.0133640680
  Root   2 singlet a'             0.114858736 a.u.                3.1255 eV
     Dipole Oscillator Strength                    0.0168148362
  Root   3 singlet a'             0.129888204 a.u.                3.5344 eV
     Dipole Oscillator Strength                    0.6908524157
         Total DFT energy =     -540.026153443965

                       DFT Final Molecular Orbital Analysis
                       ------------------------------------

 Vector    1  Occ=2.000000D+00  E=-1.040331D+01  Symmetry=a'

 Vector  425  Occ=0.000000D+00  E= 3.875358D+00  Symmetry=a'

 Vector  426  Occ=0.000000D+00  E= 3.883835D+00  Symmetry=a"

 Vector  427  Occ=0.000000D+00  E= 3.899557D+00  Symmetry=a"

 Vector  428  Occ=0.000000D+00  E= 3.904605D+00  Symmetry=a'

 Vector  429  Occ=0.000000D+00  E= 3.906689D+00  Symmetry=a"

 Vector  430  Occ=0.000000D+00  E= 3.928686D+00  Symmetry=a'

 Vector  431  Occ=0.000000D+00  E= 3.934113D+00  Symmetry=a'

 Vector  432  Occ=0.000000D+00  E= 3.951545D+00  Symmetry=a'

 Vector  433  Occ=0.000000D+00  E= 3.965134D+00  Symmetry=a'

 Vector  434  Occ=0.000000D+00  E= 3.970475D+00  Symmetry=a'

 Vector  435  Occ=0.000000D+00  E= 3.982423D+00  Symmetry=a'

 Vector  436  Occ=0.000000D+00  E= 4.008708D+00  Symmetry=a'

 Vector  437  Occ=0.000000D+00  E= 4.019043D+00  Symmetry=a'

 Vector  438  Occ=0.000000D+00  E= 4.039599D+00  Symmetry=a'

 Vector  439  Occ=0.000000D+00  E= 4.050769D+00  Symmetry=a'

 Vector  440  Occ=0.000000D+00  E= 4.069513D+00  Symmetry=a'

 Vector  441  Occ=0.000000D+00  E= 4.108276D+00  Symmetry=a'

 Vector  442  Occ=0.000000D+00  E= 4.124467D+00  Symmetry=a'

 Vector  443  Occ=0.000000D+00  E= 4.128877D+00  Symmetry=a'

 Vector  444  Occ=0.000000D+00  E= 4.130653D+00  Symmetry=a'

 Vector  445  Occ=0.000000D+00  E= 4.138526D+00  Symmetry=a'

 Vector  446  Occ=0.000000D+00  E= 4.150677D+00  Symmetry=a'

 Vector  447  Occ=0.000000D+00  E= 4.164206D+00  Symmetry=a'

 Vector  448  Occ=0.000000D+00  E= 4.198665D+00  Symmetry=a'

 Vector  449  Occ=0.000000D+00  E= 4.236546D+00  Symmetry=a'

 Vector  450  Occ=0.000000D+00  E= 4.258572D+00  Symmetry=a'

 Vector  451  Occ=0.000000D+00  E= 4.279725D+00  Symmetry=a'

 Vector  452  Occ=0.000000D+00  E= 4.315021D+00  Symmetry=a'

 Vector  453  Occ=0.000000D+00  E= 4.345559D+00  Symmetry=a'

 Vector  454  Occ=0.000000D+00  E= 4.387268D+00  Symmetry=a'

 Vector  455  Occ=0.000000D+00  E= 4.405149D+00  Symmetry=a'

 Vector  456  Occ=0.000000D+00  E= 4.449795D+00  Symmetry=a'

 Vector  457  Occ=0.000000D+00  E= 4.481045D+00  Symmetry=a'

 Vector  458  Occ=0.000000D+00  E= 4.519729D+00  Symmetry=a'

 Vector  459  Occ=0.000000D+00  E= 4.534728D+00  Symmetry=a'

 Vector  460  Occ=0.000000D+00  E= 4.562908D+00  Symmetry=a'

 Vector  461  Occ=0.000000D+00  E= 4.614361D+00  Symmetry=a'

 Vector  462  Occ=0.000000D+00  E= 4.659826D+00  Symmetry=a'

 Vector  463  Occ=0.000000D+00  E= 4.805032D+00  Symmetry=a'

 Vector  464  Occ=0.000000D+00  E= 4.885495D+00  Symmetry=a'

 Vector  465  Occ=0.000000D+00  E= 4.892058D+00  Symmetry=a'

 Vector  466  Occ=0.000000D+00  E= 4.904279D+00  Symmetry=a"

 Vector  467  Occ=0.000000D+00  E= 4.929728D+00  Symmetry=a'

 Vector  468  Occ=0.000000D+00  E= 4.949588D+00  Symmetry=a'

 Vector  469  Occ=0.000000D+00  E= 4.977253D+00  Symmetry=a'

 Vector  470  Occ=0.000000D+00  E= 4.986239D+00  Symmetry=a'

 Vector  471  Occ=0.000000D+00  E= 5.016705D+00  Symmetry=a'

 Vector  472  Occ=0.000000D+00  E= 5.075493D+00  Symmetry=a'

 Vector  473  Occ=0.000000D+00  E= 5.094431D+00  Symmetry=a'

 Vector  474  Occ=0.000000D+00  E= 5.132054D+00  Symmetry=a'

 Vector  475  Occ=0.000000D+00  E= 5.167950D+00  Symmetry=a'

 Vector  476  Occ=0.000000D+00  E= 5.201594D+00  Symmetry=a'

 Vector  477  Occ=0.000000D+00  E= 8.417243D+00  Symmetry=a'

 Vector  478  Occ=0.000000D+00  E= 8.447261D+00  Symmetry=a'

 Vector  479  Occ=0.000000D+00  E= 8.516681D+00  Symmetry=a'

 Vector  480  Occ=0.000000D+00  E= 8.547077D+00  Symmetry=a'

 Vector  481  Occ=0.000000D+00  E= 8.548103D+00  Symmetry=a'

 Vector  482  Occ=0.000000D+00  E= 8.614506D+00  Symmetry=a'

 Vector  483  Occ=0.000000D+00  E= 8.668346D+00  Symmetry=a'

 Vector  484  Occ=0.000000D+00  E= 8.693299D+00  Symmetry=a'

 Vector  485  Occ=0.000000D+00  E= 8.784046D+00  Symmetry=a'

 Vector  486  Occ=0.000000D+00  E= 8.792547D+00  Symmetry=a'

 Vector  487  Occ=0.000000D+00  E= 8.806475D+00  Symmetry=a'

 Vector  488  Occ=0.000000D+00  E= 8.820650D+00  Symmetry=a'

 Vector  489  Occ=0.000000D+00  E= 8.901117D+00  Symmetry=a'

 Vector  490  Occ=0.000000D+00  E= 8.966422D+00  Symmetry=a'

 Vector  491  Occ=0.000000D+00  E= 3.430892D+01  Symmetry=a'

 Vector  492  Occ=0.000000D+00  E= 3.467579D+01  Symmetry=a'

 Vector  493  Occ=0.000000D+00  E= 3.543329D+01  Symmetry=a'

 Vector  494  Occ=0.000000D+00  E= 3.564515D+01  Symmetry=a'

 Vector  495  Occ=0.000000D+00  E= 3.572030D+01  Symmetry=a'

 Vector  496  Occ=0.000000D+00  E= 3.576177D+01  Symmetry=a'

 Vector  497  Occ=0.000000D+00  E= 3.576921D+01  Symmetry=a'

 Vector  498  Occ=0.000000D+00  E= 3.592571D+01  Symmetry=a'

 Vector  499  Occ=0.000000D+00  E= 3.606091D+01  Symmetry=a'

 Vector  500  Occ=0.000000D+00  E= 3.610827D+01  Symmetry=a'

 Vector  501  Occ=0.000000D+00  E= 3.626077D+01  Symmetry=a'

 Vector  502  Occ=0.000000D+00  E= 3.628953D+01  Symmetry=a'

 Vector  503  Occ=0.000000D+00  E= 3.661352D+01  Symmetry=a'

 Vector  504  Occ=0.000000D+00  E= 3.694343D+01  Symmetry=a'

  Root   1 singlet a'             0.083178027 a.u.                2.2634 eV
     Dipole Oscillator Strength                    0.0134209297
  Root   2 singlet a'             0.114840347 a.u.                3.1250 eV
     Dipole Oscillator Strength                    0.0167573335
  Root   3 singlet a'             0.129927158 a.u.                3.5355 eV
     Dipole Oscillator Strength                    0.6916672355

     Multipole analysis of the density
     ---------------------------------

     L   x y z        total
     -   - - -        -----
     0   0 0 0      1.000000

     1   1 0 0     -0.165452
     1   0 1 0      1.821356
     1   0 0 1     -0.000000

     2   2 0 0    -42.712849
     2   1 1 0      1.111135
     2   1 0 1     -0.000000
     2   0 2 0    -20.299158
     2   0 1 1     -0.000000

                         Root   1
@    3    -539.94297542  6.7D-06  0.00029  0.00006  0.00013  0.00031  12498.9
@    3    -539.94297542  6.7D-06  0.00029  0.00006  0.00013  0.00031  12498.9

 Output coordinates in angstroms (scale by  1.889725989 to convert to a.u.)

  No.       Tag          Charge          X              Y              Z
 ---- ---------------- ---------- -------------- -------------- --------------
    1 C                    6.0000    -1.38356056    -2.47332787     0.00000000
    2 C                    6.0000    -0.69345348    -3.68688958     0.00000000
    3 C                    6.0000     0.70841605    -3.70297787     0.00000000
    4 C                    6.0000     1.40894861    -2.52184172     0.00000000
    5 C                    6.0000     1.41016255     2.43744681     0.00000000
    6 C                    6.0000     0.73480196     3.70491288     0.00000000
    7 C                    6.0000    -0.64358401     3.75350449     0.00000000
    8 C                    6.0000    -1.33653502     2.55122219     0.00000000
    9 C                    6.0000    -1.47372713     0.02879271     0.00000000
   10 C                    6.0000     1.43062525    -0.07127941     0.00000000
   11 C                    6.0000    -0.70661571    -1.26856833     0.00000000
   12 C                    6.0000     0.72984216    -1.26565516     0.00000000
   13 C                    6.0000    -0.65342507     1.27326976     0.00000000
   14 C                    6.0000     0.72461784     1.22590146     0.00000000
   15 H                    1.0000    -2.46581069    -2.48088206     0.00000000
   16 H                    1.0000    -1.24413091    -4.61624260     0.00000000
   17 H                    1.0000     1.23596669    -4.64613039     0.00000000
   18 H                    1.0000     2.49012991    -2.52561802     0.00000000
   19 H                    1.0000     2.51009199    -0.07146891     0.00000000
   20 H                    1.0000     2.49264802     2.43963241     0.00000000
   21 H                    1.0000     1.32592047     4.60925165     0.00000000
   22 H                    1.0000    -1.17088471     4.69505373     0.00000000
   23 H                    1.0000    -2.41889405     2.54967909     0.00000000
   24 H                    1.0000    -2.15166033     0.06896188     0.86431926
   25 H                    1.0000    -2.15166033     0.06896188    -0.86431926

 Total times  cpu:    12299.3s     wall:    12499.5s
