============================== echo of input deck ==============================
echo

restart fexcnw-4

title fexcnw-4
charge 1

memory stack 1600 mb heap 400 mb global 2000 mb

geometry units angstroms print xyz autosym
    C                     -2.47332787       1.38356056   0.00000000
    C                     -3.68688958       0.69345348   0.00000000
    C                     -3.70297787      -0.70841605   0.00000000
    C                     -2.52184172      -1.40894861   0.00000000
    C                      2.43744681      -1.41016255   0.00000000
    C                      3.70491288      -0.73480196   0.00000000
    C                      3.75350449       0.64358401   0.00000000
    C                      2.55122219       1.33653502   0.00000000
    C                      0.02879271       1.47372713   0.00000000
    C                     -0.07127941      -1.43062525   0.00000000
    C                     -1.26856833       0.70661571   0.00000000
    C                     -1.26565516      -0.72984216   0.00000000
    C                      1.27326976       0.65342507   0.00000000
    C                      1.22590146      -0.72461784   0.00000000
    H                     -2.48088206       2.46581069   0.00000000
    H                     -4.61624260       1.24413091   0.00000000
    H                     -4.64613039      -1.23596669   0.00000000
    H                     -2.52561802      -2.49012991   0.00000000
    H                     -0.07146891      -2.51009199   0.00000000
    H                      2.43963241      -2.49264802   0.00000000
    H                      4.60925165      -1.32592047   0.00000000
    H                      4.69505373       1.17088471   0.00000000
    H                      2.54967909       2.41889405   0.00000000
    H                      0.06896188       2.15166033   0.86431926
    H                      0.06896188       2.15166033  -0.86431926
end

basis
  * library 6-311++G(2d,2p)
end

dft
  xc b3lyp
  mult 1
  iterations 300
end

tddft
  cis
  nroots 3
  notriplet
  target 1
  civecs
  grad
    root 1
  end
end

driver
  maxiter 50
end

task tddft freq
================================================================================

 Output coordinates in angstroms (scale by  1.889725989 to convert to a.u.)

  No.       Tag          Charge          X              Y              Z
 ---- ---------------- ---------- -------------- -------------- --------------
    1 C                    6.0000     1.38310590     2.47350966     0.00000000
    2 C                    6.0000     0.69282328     3.68697153     0.00000000
    3 C                    6.0000    -0.70904857     3.70285704     0.00000000
    4 C                    6.0000    -1.40941026     2.52161956     0.00000000
    5 C                    6.0000    -1.40990682    -2.43766909     0.00000000
    6 C                    6.0000    -0.73436290    -3.70503745     0.00000000
    7 C                    6.0000     0.64403009    -3.75342968     0.00000000
    8 C                    6.0000     1.33680718    -2.55104715     0.00000000
    9 C                    6.0000     1.47363441    -0.02859785     0.00000000
   10 C                    6.0000    -1.43073242     0.07105414     0.00000000
   11 C                    6.0000     0.70633533     1.26865221     0.00000000
   12 C                    6.0000    -0.73012211     1.26553125     0.00000000
   13 C                    6.0000     0.65351237    -1.27319355     0.00000000
   14 C                    6.0000    -0.72453738    -1.22602459     0.00000000
   15 H                    1.0000     2.46535492     2.48122040     0.00000000
   16 H                    1.0000     1.24336627     4.61640420     0.00000000
   17 H                    1.0000    -1.23673563     4.64593323     0.00000000
   18 H                    1.0000    -2.49059210     2.52523947     0.00000000
   19 H                    1.0000    -2.51019918     0.07108749     0.00000000
   20 H                    1.0000    -2.49239197    -2.44001128     0.00000000
   21 H                    1.0000    -1.32535059    -4.60946172     0.00000000
   22 H                    1.0000     1.17146698    -4.69490263     0.00000000
   23 H                    1.0000     2.41916597    -2.54934748     0.00000000
   24 H                    1.0000     2.15157341    -0.06866896     0.86431926
   25 H                    1.0000     2.15157341    -0.06866896    -0.86431926

         Total DFT energy =     -540.026153187150
                         Root   1
         Total DFT energy =     -540.026153823420
                         Root   1
         Total DFT energy =     -540.026154118578
                         Root   1
         Total DFT energy =     -540.026153209359
                         Root   1
         Total DFT energy =     -540.026153681444
                         Root   1
         Total DFT energy =     -540.026153681444
                         Root   1
         Total DFT energy =     -540.026151197743
                         Root   1
         Total DFT energy =     -540.026155807828
                         Root   1
         Total DFT energy =     -540.026153451527
                         Root   1
         Total DFT energy =     -540.026153879782
                         Root   1
         Total DFT energy =     -540.026153681375
                         Root   1
         Total DFT energy =     -540.026153681376
                         Root   1
         Total DFT energy =     -540.026154010971
                         Root   1
         Total DFT energy =     -540.026153002204
                         Root   1
         Total DFT energy =     -540.026153483190
                         Root   1
         Total DFT energy =     -540.026153844108
                         Root   1
         Total DFT energy =     -540.026153681528
                         Root   1
         Total DFT energy =     -540.026153681528
                         Root   1
         Total DFT energy =     -540.026153213356
                         Root   1
         Total DFT energy =     -540.026154018344
                         Root   1
         Total DFT energy =     -540.026154345017
                         Root   1
         Total DFT energy =     -540.026152761512
                         Root   1
         Total DFT energy =     -540.026153680897
                         Root   1
         Total DFT energy =     -540.026153680897
                         Root   1
         Total DFT energy =     -540.026154410244
                         Root   1
         Total DFT energy =     -540.026152841949
                         Root   1
         Total DFT energy =     -540.026152898141
                         Root   1
         Total DFT energy =     -540.026154185766
                         Root   1
         Total DFT energy =     -540.026153680933
                         Root   1
         Total DFT energy =     -540.026153680933
                         Root   1
         Total DFT energy =     -540.026152949344
                         Root   1
         Total DFT energy =     -540.026154065892
                         Root   1
         Total DFT energy =     -540.026154131560
                         Root   1
         Total DFT energy =     -540.026153195867
                         Root   1
         Total DFT energy =     -540.026153681318
                         Root   1
         Total DFT energy =     -540.026153681318
                         Root   1
         Total DFT energy =     -540.026151961049
                         Root   1
         Total DFT energy =     -540.026155273768
                         Root   1
         Total DFT energy =     -540.026157379160
                         Root   1
         Total DFT energy =     -540.026149955494
                         Root   1
         Total DFT energy =     -540.026154552641
                         Root   1
         Total DFT energy =     -540.026152613374

     Multipole analysis of the density
     ---------------------------------

     L   x y z        total
     -   - - -        -----
     0   0 0 0      1.000000

     1   1 0 0      0.166186
     1   0 1 0     -1.820255
     1   0 0 1     -0.000030

     2   2 0 0    -42.713687
     2   1 1 0      1.106675
     2   1 0 1     -0.000216
     2   0 2 0    -20.282553
     2   0 1 1     -0.000035

                         Root   1
 Zero-Point correction to Energy  =  126.077 kcal/mol  (  0.200916 au)
 Thermal correction to Energy     =  132.409 kcal/mol  (  0.211008 au)
 Thermal correction to Enthalpy   =  133.002 kcal/mol  (  0.211952 au)
 Total Entropy                    =   97.097 cal/mol-K
   - Translational                =   41.436 cal/mol-K (mol. weight = 179.0861)
   - Rotational                   =   31.209 cal/mol-K (symmetry #  =        1)
   - Vibrational                  =   24.451 cal/mol-K
   - Translational                  =    2.979 cal/mol-K
   - Rotational                     =    2.979 cal/mol-K
   - Vibrational                    =   37.479 cal/mol-K
 P.Frequency       -0.00        0.00        0.00        0.00        0.00        0.00
 P.Frequency       91.54      159.69      210.07      223.18      255.27      307.65
 P.Frequency      344.64      386.43      400.55      458.72      474.71      507.95
 P.Frequency      531.03      574.31      588.20      606.71      637.44      659.71
 P.Frequency      713.10      720.82      749.64      786.03      818.18      866.18
 P.Frequency      877.46      892.60      920.68      939.76      960.06      982.18
 P.Frequency      992.89     1001.97     1014.25     1024.31     1039.28     1106.45
 P.Frequency     1153.02     1165.41     1178.73     1197.14     1202.83     1216.78
 P.Frequency     1226.16     1249.87     1301.78     1338.03     1355.53     1391.47
 P.Frequency     1405.00     1419.34     1443.17     1463.62     1476.50     1507.72
 P.Frequency     1532.15     1547.75     1585.17     1668.05     2930.23     2997.58
 P.Frequency     3112.49     3124.33     3146.70     3156.98     3159.39     3169.71
 P.Frequency     3176.68     3189.71     3221.30

 Normal Eigenvalue ||           Projected Infra Red Intensities
  Mode   [cm**-1]  || [atomic units] [(debye/angs)**2] [(KM/mol)] [arbitrary]
 ------ ---------- || -------------- ----------------- ---------- -----------
    1       -0.000 ||    0.014519           0.335        14.154       2.663
    2        0.000 ||    0.017194           0.397        16.761       3.153
    3        0.000 ||    0.000651           0.015         0.635       0.119
    4        0.000 ||    0.003908           0.090         3.810       0.717
    5        0.000 ||    0.000484           0.011         0.472       0.089
    6        0.000 ||    0.008047           0.186         7.844       1.476
    7       91.539 ||    0.000070           0.002         0.068       0.013
    8      159.689 ||    0.000016           0.000         0.015       0.003
    9      210.067 ||    0.003660           0.084         3.568       0.671
   10      223.178 ||    0.006721           0.155         6.552       1.233
   11      255.270 ||    0.003884           0.090         3.787       0.712
   12      307.650 ||    0.001520           0.035         1.481       0.279
   13      344.637 ||    0.009780           0.226         9.534       1.794
   14      386.435 ||    0.000516           0.012         0.503       0.095
   15      400.548 ||    0.003984           0.092         3.884       0.731
   16      458.720 ||    0.015033           0.347        14.654       2.757
   17      474.714 ||    0.000796           0.018         0.776       0.146
   18      507.953 ||    0.054921           1.267        53.540      10.072
   19      531.034 ||    0.001135           0.026         1.107       0.208
   20      574.311 ||    0.000397           0.009         0.387       0.073
   21      588.202 ||    0.020577           0.475        20.060       3.774
   22      606.707 ||    0.007523           0.174         7.334       1.380
   23      637.444 ||    0.075881           1.751        73.973      13.916
   24      659.710 ||    0.043867           1.012        42.764       8.045
   25      713.102 ||    0.002904           0.067         2.831       0.533
   26      720.821 ||    0.014484           0.334        14.120       2.656
   27      749.639 ||    0.002958           0.068         2.884       0.543
   28      786.033 ||    0.019743           0.455        19.247       3.621
   29      818.180 ||    0.084612           1.952        82.484      15.517
   30      866.181 ||    0.000514           0.012         0.501       0.094
   31      877.462 ||    0.010527           0.243        10.262       1.931
   32      892.599 ||    0.005285           0.122         5.152       0.969
   33      920.680 ||    0.000770           0.018         0.751       0.141
   34      939.762 ||    0.000292           0.007         0.285       0.054
   35      960.059 ||    0.444946          10.265       433.756      81.600
   36      982.183 ||    0.050036           1.154        48.778       9.176
   37      992.894 ||    0.000206           0.005         0.201       0.038
   38     1001.965 ||    0.002598           0.060         2.533       0.476
   39     1014.249 ||    0.002169           0.050         2.115       0.398
   40     1024.315 ||    0.000149           0.003         0.145       0.027
   41     1039.279 ||    0.007623           0.176         7.432       1.398
   42     1106.453 ||    0.169084           3.901       164.832      31.009
   43     1153.025 ||    0.084482           1.949        82.357      15.493
   44     1165.409 ||    0.075519           1.742        73.620      13.850
   45     1178.731 ||    0.057967           1.337        56.509      10.631
   46     1197.142 ||    0.062234           1.436        60.668      11.413
   47     1202.833 ||    0.026791           0.618        26.117       4.913
   48     1216.779 ||    0.000101           0.002         0.098       0.018
   49     1226.160 ||    0.120732           2.785       117.695      22.141
   50     1249.874 ||    0.007709           0.178         7.515       1.414
   51     1301.778 ||    0.123285           2.844       120.184      22.610
   52     1338.029 ||    0.403377           9.306       393.232      73.976
   53     1355.528 ||    0.107465           2.479       104.762      19.708
   54     1391.469 ||    0.024150           0.557        23.543       4.429
   55     1404.998 ||    0.044383           1.024        43.267       8.139
   56     1419.338 ||    0.038274           0.883        37.312       7.019
   57     1443.167 ||    0.000771           0.018         0.751       0.141
   58     1463.624 ||    0.247687           5.714       241.458      45.424
   59     1476.503 ||    0.055319           1.276        53.928      10.145
   60     1507.724 ||    0.006297           0.145         6.138       1.155
   61     1532.154 ||    0.167327           3.860       163.119      30.686
   62     1547.746 ||    0.003376           0.078         3.291       0.619
   63     1585.170 ||    0.029228           0.674        28.493       5.360
   64     1668.052 ||    0.137339           3.169       133.885      25.187
   65     2930.227 ||    0.213893           4.935       208.513      39.226
   66     2997.582 ||    0.000789           0.018         0.769       0.145
   67     3112.495 ||    0.315178           7.271       307.251      57.801
   68     3124.325 ||    0.132426           3.055       129.095      24.286
   69     3146.703 ||    0.001732           0.040         1.688       0.318
   70     3156.979 ||    0.275597           6.358       268.666      50.542
   71     3159.388 ||    0.193073           4.454       188.218      35.408
   72     3169.709 ||    0.000979           0.023         0.954       0.179
   73     3176.683 ||    0.000807           0.019         0.786       0.148
   74     3189.709 ||    0.004745           0.109         4.626       0.870
   75     3221.299 ||    0.012573           0.290        12.256       2.306
 ----------------------------------------------------------------------------

 Total times  cpu:   106489.2s     wall:   108244.1s
