 Gaussian 16, Revision C.01,
 Gaussian 16:  ES64L-G16RevC.01  3-Jul-2019

 ----------------------------------------------
 #n M062X/6-311++G(d,p) TD SP pop=reg formcheck
 ----------------------------------------------

 -----
 SP_13
 -----
 Symbolic Z-matrix:
 Charge =  1 Multiplicity = 1

                         Standard orientation:
 ---------------------------------------------------------------------
 Center     Atomic      Atomic             Coordinates (Angstroms)
 Number     Number       Type             X           Y           Z
 ---------------------------------------------------------------------
      1          6           0        2.532154   -1.345350    0.000000
      2          6           0        3.740062   -0.655935    0.000000
      3          6           0        3.700348    0.721686    0.000000
      4          6           0        2.428927    1.418672    0.000000
      5          6           0       -2.508920    1.403590    0.000000
      6          6           0       -3.685043    0.710428    0.000000
      7          6           0       -3.680068   -0.691327    0.000000
      8          6           0       -2.465355   -1.382486    0.000000
      9          6           0        0.021379   -1.458825    0.000000
     10          6           0       -0.053231    1.432972    0.000000
     11          6           0        1.255018   -0.652550    0.000000
     12          6           0        1.223806    0.738574    0.000000
     13          6           0       -1.274035   -0.704554    0.000000
     14          6           0       -1.257154    0.725608    0.000000
     15          1           0        2.520198   -2.431201    0.000000
     16          1           0        4.680217   -1.188620    0.000000
     17          1           0        4.612250    1.307527    0.000000
     18          1           0        2.439960    2.504359    0.000000
     19          1           0       -0.055261    2.516161    0.000000
     20          1           0       -2.507234    2.487607    0.000000
     21          1           0       -4.627515    1.243215    0.000000
     22          1           0       -4.614341   -1.239741    0.000000
     23          1           0       -2.469709   -2.467613    0.000000
     24          1           0        0.076981   -2.147358    0.864170
     25          1           0        0.077114   -2.147357   -0.864170
 ---------------------------------------------------------------------

 SCF Done:  E(RM062X) =  -539.751516272     A.U. after   15 cycles

 Excitation energies and oscillator strengths:

 Excited State   1:      Singlet-A      2.6341 eV  470.68 nm  f=0.0187  <S**2>=0.000
      47 -> 48         0.70339
 This state for optimization and/or second-order correction.
 Total Energy, E(TD-HF/TD-DFT) =  -539.654713524
 Copying the excited state density for this state as the 1-particle RhoCI density.

 Excited State   2:      Singlet-A      3.4012 eV  364.53 nm  f=0.0888  <S**2>=0.000
      45 -> 48         0.57339
      46 -> 48         0.40135

 Excited State   3:      Singlet-A      3.4871 eV  355.55 nm  f=0.4726  <S**2>=0.000
      45 -> 48        -0.40515
      46 -> 48         0.57014

 The electronic state is 1-A.
 Alpha  occ. eigenvalues --  -10.77667 -10.73906 -10.72981 -10.72762 -10.72291
 Alpha  occ. eigenvalues --  -10.72025 -10.71950 -10.71082 -10.70916 -10.70330
 Alpha  occ. eigenvalues --  -10.70026 -10.70020 -10.69827 -10.69438  -1.16329
 Alpha  occ. eigenvalues --   -1.12269  -1.06754  -1.05706  -1.01152  -1.00294
 Alpha  occ. eigenvalues --   -0.95462  -0.90919  -0.86314  -0.85749  -0.83713
 Alpha  occ. eigenvalues --   -0.78247  -0.75992  -0.74218  -0.69792  -0.69176
 Alpha  occ. eigenvalues --   -0.68232  -0.67990  -0.67937  -0.65220  -0.64153
 Alpha  occ. eigenvalues --   -0.62586  -0.61554  -0.60369  -0.59225  -0.59119
 Alpha  occ. eigenvalues --   -0.56813  -0.55442  -0.54271  -0.52332  -0.47316
 Alpha  occ. eigenvalues --   -0.46062  -0.43680
 Alpha virt. eigenvalues --   -0.26135  -0.14734  -0.14088  -0.12819  -0.11181
 Alpha virt. eigenvalues --   -0.10091  -0.09263  -0.07959  -0.07954  -0.07490
 Alpha virt. eigenvalues --   -0.07205  -0.07148  -0.05662  -0.05582  -0.05376

 Mulliken charges:
               1
     1  C    0.105926
     2  C   -0.408774
     3  C   -0.448135
     4  C   -0.021161
     5  C    0.032051
     6  C   -0.430220
     7  C   -0.397431
     8  C    0.069338
     9  C   -0.348221
    10  C    0.077770
    11  C   -0.605730
    12  C    0.678237
    13  C   -0.636549
    14  C    0.706154
    15  H    0.236609
    16  H    0.251622
    17  H    0.246518
    18  H    0.220083
    19  H    0.190730
    20  H    0.226248
    21  H    0.252688
    22  H    0.262757
    23  H    0.240515
    24  H    0.249489
    25  H    0.249486
 Sum of Mulliken charges =   1.00000

 Dipole moment (field-independent basis, Debye):
    X=             -1.1707    Y=              0.1674    Z=              0.0000  Tot=              1.1826
 Quadrupole moment (field-independent basis, Debye-Ang):
   XX=            -30.7374   YY=            -56.2017   ZZ=            -84.2629
   XY=             -0.0945   XZ=             -0.0001   YZ=             -0.0000

 Normal termination of Gaussian 16 at Thu Jul 14 14:46:37 2022.
