 Gaussian 16, Revision C.01,
 Gaussian 16:  ES64L-G16RevC.01  3-Jul-2019

 ----------------------------------------------
 #n M062X/6-311++G(d,p) TD SP pop=reg formcheck
 ----------------------------------------------

 ----
 SP_3
 ----
 Symbolic Z-matrix:
 Charge =  1 Multiplicity = 1

                         Standard orientation:
 ---------------------------------------------------------------------
 Center     Atomic      Atomic             Coordinates (Angstroms)
 Number     Number       Type             X           Y           Z
 ---------------------------------------------------------------------
      1          6           0        2.506271   -1.359834    0.000000
      2          6           0        3.716912   -0.669536    0.000000
      3          6           0        3.694300    0.717130    0.000000
      4          6           0        2.459680    1.413018    0.000000
      5          6           0       -2.478141    1.409536    0.000000
      6          6           0       -3.690768    0.714531    0.000000
      7          6           0       -3.703067   -0.677705    0.000000
      8          6           0       -2.490855   -1.368404    0.000000
      9          6           0        0.004933   -1.458219    0.000000
     10          6           0       -0.012284    1.433212    0.000000
     11          6           0        1.262433   -0.672618    0.000000
     12          6           0        1.236696    0.733636    0.000000
     13          6           0       -1.266821   -0.684619    0.000000
     14          6           0       -1.244392    0.730643    0.000000
     15          1           0        2.500843   -2.445267    0.000000
     16          1           0        4.654784   -1.208380    0.000000
     17          1           0        4.618123    1.282711    0.000000
     18          1           0        2.465828    2.497885    0.000000
     19          1           0       -0.012753    2.516283    0.000000
     20          1           0       -2.481353    2.494019    0.000000
     21          1           0       -4.621646    1.267868    0.000000
     22          1           0       -4.639582   -1.220179    0.000000
     23          1           0       -2.489190   -2.453671    0.000000
     24          1           0        0.017766   -2.147951    0.863862
     25          1           0        0.017797   -2.147951   -0.863862
 ---------------------------------------------------------------------

 SCF Done:  E(RM062X) =  -539.758614851     A.U. after   15 cycles

 Excitation energies and oscillator strengths:

 Excited State   1:      Singlet-A      2.7977 eV  443.17 nm  f=0.0272  <S**2>=0.000
      47 -> 48         0.70409
 This state for optimization and/or second-order correction.
 Total Energy, E(TD-HF/TD-DFT) =  -539.655802401
 Copying the excited state density for this state as the 1-particle RhoCI density.

 Excited State   2:      Singlet-A      3.2539 eV  381.03 nm  f=0.0042  <S**2>=0.000
      45 -> 48         0.62849
      46 -> 48         0.31223

 Excited State   3:      Singlet-A      3.4684 eV  357.47 nm  f=0.5561  <S**2>=0.000
      45 -> 48        -0.31420
      46 -> 48         0.62418

 The electronic state is 1-A.
 Alpha  occ. eigenvalues --  -10.77771 -10.73480 -10.73214 -10.72664 -10.72442
 Alpha  occ. eigenvalues --  -10.71593 -10.71372 -10.71351 -10.71071 -10.70844
 Alpha  occ. eigenvalues --  -10.70140 -10.70024 -10.69808 -10.69670  -1.16227
 Alpha  occ. eigenvalues --   -1.12261  -1.06766  -1.05575  -1.01178  -1.00067
 Alpha  occ. eigenvalues --   -0.95666  -0.90939  -0.86288  -0.85784  -0.83733
 Alpha  occ. eigenvalues --   -0.78329  -0.75863  -0.74286  -0.69489  -0.69191
 Alpha  occ. eigenvalues --   -0.68409  -0.68090  -0.68002  -0.64700  -0.64214
 Alpha  occ. eigenvalues --   -0.62935  -0.61772  -0.59961  -0.59493  -0.59062
 Alpha  occ. eigenvalues --   -0.56866  -0.55227  -0.54747  -0.52330  -0.46602
 Alpha  occ. eigenvalues --   -0.46000  -0.44405
 Alpha virt. eigenvalues --   -0.26106  -0.14709  -0.14145  -0.12842  -0.11168
 Alpha virt. eigenvalues --   -0.10084  -0.09231  -0.08014  -0.07983  -0.07480
 Alpha virt. eigenvalues --   -0.07197  -0.07160  -0.05657  -0.05592  -0.05357

 Mulliken charges:
               1
     1  C    0.092217
     2  C   -0.404973
     3  C   -0.440611
     4  C    0.001484
     5  C    0.014200
     6  C   -0.436562
     7  C   -0.402241
     8  C    0.083608
     9  C   -0.340261
    10  C    0.084049
    11  C   -0.626319
    12  C    0.687093
    13  C   -0.632394
    14  C    0.694310
    15  H    0.237917
    16  H    0.255794
    17  H    0.248968
    18  H    0.222256
    19  H    0.191476
    20  H    0.223723
    21  H    0.250404
    22  H    0.258378
    23  H    0.238847
    24  H    0.249319
    25  H    0.249319
 Sum of Mulliken charges =   1.00000

 Dipole moment (field-independent basis, Debye):
    X=             -0.2718    Y=              0.1972    Z=              0.0000  Tot=              0.3358
 Quadrupole moment (field-independent basis, Debye-Ang):
   XX=            -30.8807   YY=            -56.1782   ZZ=            -84.2776
   XY=             -0.0224   XZ=             -0.0000   YZ=             -0.0000

 Normal termination of Gaussian 16 at Thu Jul 14 13:05:13 2022.
