 Gaussian 16, Revision C.01,
 Gaussian 16:  ES64L-G16RevC.01  3-Jul-2019

 ----------------------------------------------
 #n M062X/6-311++G(d,p) TD SP pop=reg formcheck
 ----------------------------------------------

 -----
 SP_11
 -----
 Symbolic Z-matrix:
 Charge =  1 Multiplicity = 1

                         Standard orientation:
 ---------------------------------------------------------------------
 Center     Atomic      Atomic             Coordinates (Angstroms)
 Number     Number       Type             X           Y           Z
 ---------------------------------------------------------------------
      1          6           0        2.526985   -1.348267    0.000000
      2          6           0        3.735435   -0.658674    0.000000
      3          6           0        3.699133    0.720768    0.000000
      4          6           0        2.435076    1.417566    0.000000
      5          6           0       -2.502763    1.404804    0.000000
      6          6           0       -3.686182    0.711241    0.000000
      7          6           0       -3.684671   -0.688623    0.000000
      8          6           0       -2.470461   -1.379690    0.000000
      9          6           0        0.018089   -1.458715    0.000000
     10          6           0       -0.045042    1.433054    0.000000
     11          6           0        1.256517   -0.656554    0.000000
     12          6           0        1.226385    0.737597    0.000000
     13          6           0       -1.272607   -0.700559    0.000000
     14          6           0       -1.254603    0.726625    0.000000
     15          1           0        2.516334   -2.434025    0.000000
     16          1           0        4.675137   -1.192591    0.000000
     17          1           0        4.613435    1.302567    0.000000
     18          1           0        2.445133    2.503082    0.000000
     19          1           0       -0.046760    2.516218    0.000000
     20          1           0       -2.502058    2.488906    0.000000
     21          1           0       -4.626352    1.248147    0.000000
     22          1           0       -4.619395   -1.235850    0.000000
     23          1           0       -2.473611   -2.464836    0.000000
     24          1           0        0.065139   -2.147526    0.864109
     25          1           0        0.065251   -2.147525   -0.864109
 ---------------------------------------------------------------------

 SCF Done:  E(RM062X) =  -539.753652069     A.U. after   15 cycles

 Excitation energies and oscillator strengths:

 Excited State   1:      Singlet-A      2.6750 eV  463.49 nm  f=0.0202  <S**2>=0.000
      47 -> 48         0.70346
 This state for optimization and/or second-order correction.
 Total Energy, E(TD-HF/TD-DFT) =  -539.655347705
 Copying the excited state density for this state as the 1-particle RhoCI density.

 Excited State   2:      Singlet-A      3.3677 eV  368.16 nm  f=0.0404  <S**2>=0.000
      45 -> 48         0.62096
      46 -> 48         0.32479

 Excited State   3:      Singlet-A      3.4788 eV  356.40 nm  f=0.5216  <S**2>=0.000
      45 -> 48        -0.32797
      46 -> 48         0.61710

 The electronic state is 1-A.
 Alpha  occ. eigenvalues --  -10.77698 -10.73824 -10.72924 -10.72854 -10.72113
 Alpha  occ. eigenvalues --  -10.72104 -10.71884 -10.71079 -10.71005 -10.70293
 Alpha  occ. eigenvalues --  -10.70177 -10.69984 -10.69868 -10.69485  -1.16298
 Alpha  occ. eigenvalues --   -1.12266  -1.06757  -1.05666  -1.01159  -1.00229
 Alpha  occ. eigenvalues --   -0.95519  -0.90926  -0.86307  -0.85759  -0.83719
 Alpha  occ. eigenvalues --   -0.78271  -0.75955  -0.74236  -0.69719  -0.69170
 Alpha  occ. eigenvalues --   -0.68282  -0.67994  -0.67977  -0.65092  -0.64165
 Alpha  occ. eigenvalues --   -0.62666  -0.61619  -0.60279  -0.59200  -0.59181
 Alpha  occ. eigenvalues --   -0.56828  -0.55402  -0.54387  -0.52331  -0.47131
 Alpha  occ. eigenvalues --   -0.46051  -0.43861
 Alpha virt. eigenvalues --   -0.26127  -0.14727  -0.14105  -0.12826  -0.11177
 Alpha virt. eigenvalues --   -0.10089  -0.09254  -0.07972  -0.07966  -0.07487
 Alpha virt. eigenvalues --   -0.07203  -0.07152  -0.05661  -0.05585  -0.05370

 Mulliken charges:
               1
     1  C    0.103271
     2  C   -0.408128
     3  C   -0.446557
     4  C   -0.016648
     5  C    0.028830
     6  C   -0.431474
     7  C   -0.398413
     8  C    0.072148
     9  C   -0.346027
    10  C    0.079586
    11  C   -0.611083
    12  C    0.679771
    13  C   -0.636093
    14  C    0.704175
    15  H    0.236846
    16  H    0.252439
    17  H    0.247010
    18  H    0.220487
    19  H    0.190956
    20  H    0.225748
    21  H    0.252244
    22  H    0.261878
    23  H    0.240182
    24  H    0.249426
    25  H    0.249424
 Sum of Mulliken charges =   1.00000

 Dipole moment (field-independent basis, Debye):
    X=             -0.9924    Y=              0.1764    Z=              0.0000  Tot=              1.0080
 Quadrupole moment (field-independent basis, Debye-Ang):
   XX=            -30.7801   YY=            -56.1948   ZZ=            -84.2674
   XY=             -0.0806   XZ=             -0.0001   YZ=             -0.0000

 Normal termination of Gaussian 16 at Thu Jul 14 14:27:08 2022.
