 Gaussian 16, Revision C.01,
 Gaussian 16:  ES64L-G16RevC.01  3-Jul-2019

 ----------------------------------------------
 #n M062X/6-311++G(d,p) TD SP pop=reg formcheck
 ----------------------------------------------

 ----
 SP_4
 ----
 Symbolic Z-matrix:
 Charge =  1 Multiplicity = 1

                         Standard orientation:
 ---------------------------------------------------------------------
 Center     Atomic      Atomic             Coordinates (Angstroms)
 Number     Number       Type             X           Y           Z
 ---------------------------------------------------------------------
      1          6           0        2.508863   -1.358396    0.000000
      2          6           0        3.719228   -0.668187    0.000000
      3          6           0        3.694902    0.717582    0.000000
      4          6           0        2.456604    1.413597    0.000000
      5          6           0       -2.481218    1.408955    0.000000
      6          6           0       -3.690192    0.714116    0.000000
      7          6           0       -3.700769   -0.679078    0.000000
      8          6           0       -2.488309   -1.369823    0.000000
      9          6           0        0.006577   -1.458286    0.000000
     10          6           0       -0.016379    1.433207    0.000000
     11          6           0        1.261700   -0.670606    0.000000
     12          6           0        1.235408    0.734136    0.000000
     13          6           0       -1.267551   -0.686608    0.000000
     14          6           0       -1.245669    0.730145    0.000000
     15          1           0        2.502782   -2.443867    0.000000
     16          1           0        4.657331   -1.206415    0.000000
     17          1           0        4.617542    1.285194    0.000000
     18          1           0        2.463240    2.498543    0.000000
     19          1           0       -0.017004    2.516289    0.000000
     20          1           0       -2.483941    2.493387    0.000000
     21          1           0       -4.622239    1.265404    0.000000
     22          1           0       -4.637061   -1.222147    0.000000
     23          1           0       -2.487245   -2.455072    0.000000
     24          1           0        0.023688   -2.147920    0.863893
     25          1           0        0.023729   -2.147920   -0.863893
 ---------------------------------------------------------------------

 SCF Done:  E(RM062X) =  -539.758305544     A.U. after   15 cycles

 Excitation energies and oscillator strengths:

 Excited State   1:      Singlet-A      2.7881 eV  444.69 nm  f=0.0265  <S**2>=0.000
      47 -> 48         0.70399
 This state for optimization and/or second-order correction.
 Total Energy, E(TD-HF/TD-DFT) =  -539.655843557
 Copying the excited state density for this state as the 1-particle RhoCI density.

 Excited State   2:      Singlet-A      3.2630 eV  379.98 nm  f=0.0055  <S**2>=0.000
      45 -> 48         0.63282
      46 -> 48         0.30327

 Excited State   3:      Singlet-A      3.4688 eV  357.42 nm  f=0.5552  <S**2>=0.000
      45 -> 48        -0.30533
      46 -> 48         0.62850

 The electronic state is 1-A.
 Alpha  occ. eigenvalues --  -10.77766 -10.73524 -10.73169 -10.72699 -10.72403
 Alpha  occ. eigenvalues --  -10.71631 -10.71462 -10.71309 -10.71072 -10.70759
 Alpha  occ. eigenvalues --  -10.70159 -10.70004 -10.69830 -10.69647  -1.16231
 Alpha  occ. eigenvalues --   -1.12261  -1.06765  -1.05580  -1.01177  -1.00077
 Alpha  occ. eigenvalues --   -0.95656  -0.90938  -0.86289  -0.85782  -0.83732
 Alpha  occ. eigenvalues --   -0.78325  -0.75869  -0.74283  -0.69508  -0.69185
 Alpha  occ. eigenvalues --   -0.68401  -0.68082  -0.68002  -0.64732  -0.64208
 Alpha  occ. eigenvalues --   -0.62913  -0.61763  -0.59992  -0.59463  -0.59070
 Alpha  occ. eigenvalues --   -0.56864  -0.55246  -0.54716  -0.52330  -0.46640
 Alpha  occ. eigenvalues --   -0.46006  -0.44363
 Alpha virt. eigenvalues --   -0.26108  -0.14711  -0.14143  -0.12841  -0.11168
 Alpha virt. eigenvalues --   -0.10085  -0.09232  -0.08012  -0.07982  -0.07481
 Alpha virt. eigenvalues --   -0.07198  -0.07160  -0.05657  -0.05591  -0.05358

 Mulliken charges:
               1
     1  C    0.093626
     2  C   -0.405412
     3  C   -0.441322
     4  C   -0.000774
     5  C    0.016150
     6  C   -0.435915
     7  C   -0.401777
     8  C    0.082161
     9  C   -0.340711
    10  C    0.083727
    11  C   -0.624889
    12  C    0.686110
    13  C   -0.633065
    14  C    0.695677
    15  H    0.237774
    16  H    0.255368
    17  H    0.248725
    18  H    0.222023
    19  H    0.191446
    20  H    0.223976
    21  H    0.250639
    22  H    0.258813
    23  H    0.239012
    24  H    0.249320
    25  H    0.249319
 Sum of Mulliken charges =   1.00000

 Dipole moment (field-independent basis, Debye):
    X=             -0.3623    Y=              0.1959    Z=              0.0000  Tot=              0.4119
 Quadrupole moment (field-independent basis, Debye-Ang):
   XX=            -30.8743   YY=            -56.1793   ZZ=            -84.2770
   XY=             -0.0299   XZ=             -0.0000   YZ=             -0.0000

 Normal termination of Gaussian 16 at Thu Jul 14 13:18:39 2022.
