 Gaussian 16, Revision C.01,
 Gaussian 16:  ES64L-G16RevC.01  3-Jul-2019

 ----------------------------------------------
 #n M062X/6-311++G(d,p) TD SP pop=reg formcheck
 ----------------------------------------------

 -----
 SP_16
 -----
 Symbolic Z-matrix:
 Charge =  1 Multiplicity = 1

                         Standard orientation:
 ---------------------------------------------------------------------
 Center     Atomic      Atomic             Coordinates (Angstroms)
 Number     Number       Type             X           Y           Z
 ---------------------------------------------------------------------
      1          6           0        2.539902   -1.340957    0.000000
      2          6           0        3.747001   -0.651808    0.000000
      3          6           0        3.702177    0.723069    0.000000
      4          6           0        2.419705    1.420306    0.000000
      5          6           0       -2.518155    1.401748    0.000000
      6          6           0       -3.683340    0.709217    0.000000
      7          6           0       -3.673163   -0.695364    0.000000
      8          6           0       -2.457690   -1.386661    0.000000
      9          6           0        0.026313   -1.458979    0.000000
     10          6           0       -0.065513    1.432817    0.000000
     11          6           0        1.252756   -0.646551    0.000000
     12          6           0        1.219936    0.740030    0.000000
     13          6           0       -1.276163   -0.710554    0.000000
     14          6           0       -1.260978    0.724074    0.000000
     15          1           0        2.525988   -2.426955    0.000000
     16          1           0        4.687832   -1.182645    0.000000
     17          1           0        4.610463    1.314964    0.000000
     18          1           0        2.432203    2.506258    0.000000
     19          1           0       -0.068011    2.516044    0.000000
     20          1           0       -2.514999    2.485643    0.000000
     21          1           0       -4.629249    1.235817    0.000000
     22          1           0       -4.606756   -1.245558    0.000000
     23          1           0       -2.463851   -2.471766    0.000000
     24          1           0        0.094742   -2.147061    0.864262
     25          1           0        0.094907   -2.147059   -0.864262
 ---------------------------------------------------------------------

 SCF Done:  E(RM062X) =  -539.747632935     A.U. after   16 cycles

 Excitation energies and oscillator strengths:

 Excited State   1:      Singlet-A      2.5695 eV  482.52 nm  f=0.0168  <S**2>=0.000
      47 -> 48         0.70333
 This state for optimization and/or second-order correction.
 Total Energy, E(TD-HF/TD-DFT) =  -539.653204626
 Copying the excited state density for this state as the 1-particle RhoCI density.

 Excited State   2:      Singlet-A      3.4395 eV  360.48 nm  f=0.2683  <S**2>=0.000
      45 -> 48         0.39450
      46 -> 48         0.57567

 Excited State   3:      Singlet-A      3.5153 eV  352.70 nm  f=0.2909  <S**2>=0.000
      45 -> 48         0.58045
      46 -> 48        -0.39307

 The electronic state is 1-A.
 Alpha  occ. eigenvalues --  -10.77609 -10.74025 -10.73062 -10.72626 -10.72574
 Alpha  occ. eigenvalues --  -10.72043 -10.71891 -10.71087 -10.70779 -10.70385
 Alpha  occ. eigenvalues --  -10.70087 -10.69818 -10.69739 -10.69367  -1.16386
 Alpha  occ. eigenvalues --   -1.12275  -1.06750  -1.05779  -1.01139  -1.00403
 Alpha  occ. eigenvalues --   -0.95368  -0.90907  -0.86327  -0.85732  -0.83703
 Alpha  occ. eigenvalues --   -0.78204  -0.76057  -0.74189  -0.69907  -0.69191
 Alpha  occ. eigenvalues --   -0.68148  -0.67983  -0.67871  -0.65420  -0.64136
 Alpha  occ. eigenvalues --   -0.62472  -0.61441  -0.60507  -0.59292  -0.58999
 Alpha  occ. eigenvalues --   -0.56786  -0.55494  -0.54085  -0.52333  -0.47613
 Alpha  occ. eigenvalues --   -0.46078  -0.43395
 Alpha virt. eigenvalues --   -0.26150  -0.14746  -0.14058  -0.12806  -0.11188
 Alpha virt. eigenvalues --   -0.10095  -0.09280  -0.07947  -0.07924  -0.07496
 Alpha virt. eigenvalues --   -0.07210  -0.07140  -0.05664  -0.05577  -0.05385

 Mulliken charges:
               1
     1  C    0.109795
     2  C   -0.409622
     3  C   -0.450562
     4  C   -0.027872
     5  C    0.036454
     6  C   -0.428338
     7  C   -0.395955
     8  C    0.065175
     9  C   -0.352044
    10  C    0.074487
    11  C   -0.596339
    12  C    0.676252
    13  C   -0.637014
    14  C    0.708652
    15  H    0.236280
    16  H    0.250414
    17  H    0.245782
    18  H    0.219512
    19  H    0.190322
    20  H    0.226986
    21  H    0.253341
    22  H    0.264075
    23  H    0.241009
    24  H    0.249607
    25  H    0.249603
 Sum of Mulliken charges =   1.00000

 Dipole moment (field-independent basis, Debye):
    X=             -1.4361    Y=              0.1513    Z=              0.0000  Tot=              1.4440
 Quadrupole moment (field-independent basis, Debye-Ang):
   XX=            -30.6606   YY=            -56.2142   ZZ=            -84.2547
   XY=             -0.1146   XZ=             -0.0001   YZ=             -0.0000

 Normal termination of Gaussian 16 at Thu Jul 14 15:16:30 2022.
