 Gaussian 16, Revision C.01,
 Gaussian 16:  ES64L-G16RevC.01  3-Jul-2019

 ----------------------------------------------
 #n M062X/6-311++G(d,p) TD SP pop=reg formcheck
 ----------------------------------------------

 -----
 SP_10
 -----
 Symbolic Z-matrix:
 Charge =  1 Multiplicity = 1

                         Standard orientation:
 ---------------------------------------------------------------------
 Center     Atomic      Atomic             Coordinates (Angstroms)
 Number     Number       Type             X           Y           Z
 ---------------------------------------------------------------------
      1          6           0        2.524399   -1.349721    0.000000
      2          6           0        3.733121   -0.660040    0.000000
      3          6           0        3.698526    0.720310    0.000000
      4          6           0        2.438151    1.417009    0.000000
      5          6           0       -2.499685    1.405406    0.000000
      6          6           0       -3.686753    0.711648    0.000000
      7          6           0       -3.686971   -0.687267    0.000000
      8          6           0       -2.473013   -1.378288    0.000000
      9          6           0        0.016445   -1.458658    0.000000
     10          6           0       -0.040947    1.433089    0.000000
     11          6           0        1.257263   -0.658558    0.000000
     12          6           0        1.227674    0.737106    0.000000
     13          6           0       -1.271890   -0.698563    0.000000
     14          6           0       -1.253327    0.727131    0.000000
     15          1           0        2.514401   -2.435435    0.000000
     16          1           0        4.672595   -1.194573    0.000000
     17          1           0        4.614025    1.300086    0.000000
     18          1           0        2.447719    2.502440    0.000000
     19          1           0       -0.042509    2.516240    0.000000
     20          1           0       -2.499469    2.489553    0.000000
     21          1           0       -4.625768    1.250613    0.000000
     22          1           0       -4.621921   -1.233900    0.000000
     23          1           0       -2.475561   -2.463446    0.000000
     24          1           0        0.059217   -2.147601    0.864078
     25          1           0        0.059320   -2.147600   -0.864078
 ---------------------------------------------------------------------

 SCF Done:  E(RM062X) =  -539.754584863     A.U. after   15 cycles

 Excitation energies and oscillator strengths:

 Excited State   1:      Singlet-A      2.6945 eV  460.14 nm  f=0.0210  <S**2>=0.000
      47 -> 48         0.70351
 This state for optimization and/or second-order correction.
 Total Energy, E(TD-HF/TD-DFT) =  -539.655564198
 Copying the excited state density for this state as the 1-particle RhoCI density.

 Excited State   2:      Singlet-A      3.3504 eV  370.05 nm  f=0.0288  <S**2>=0.000
      45 -> 48         0.63199
      46 -> 48         0.30338

 Excited State   3:      Singlet-A      3.4761 eV  356.67 nm  f=0.5334  <S**2>=0.000
      45 -> 48        -0.30632
      46 -> 48         0.62796

 The electronic state is 1-A.
 Alpha  occ. eigenvalues --  -10.77712 -10.73782 -10.72899 -10.72894 -10.72156
 Alpha  occ. eigenvalues --  -10.72011 -10.71850 -10.71078 -10.71050 -10.70274
 Alpha  occ. eigenvalues --  -10.70258 -10.69963 -10.69888 -10.69508  -1.16285
 Alpha  occ. eigenvalues --   -1.12265  -1.06758  -1.05648  -1.01163  -1.00200
 Alpha  occ. eigenvalues --   -0.95545  -0.90928  -0.86304  -0.85764  -0.83721
 Alpha  occ. eigenvalues --   -0.78282  -0.75938  -0.74244  -0.69684  -0.69168
 Alpha  occ. eigenvalues --   -0.68305  -0.67997  -0.67996  -0.65031  -0.64171
 Alpha  occ. eigenvalues --   -0.62706  -0.61648  -0.60234  -0.59240  -0.59161
 Alpha  occ. eigenvalues --   -0.56835  -0.55380  -0.54442  -0.52331  -0.47043
 Alpha  occ. eigenvalues --   -0.46045  -0.43947
 Alpha virt. eigenvalues --   -0.26123  -0.14724  -0.14112  -0.12829  -0.11175
 Alpha virt. eigenvalues --   -0.10088  -0.09249  -0.07980  -0.07969  -0.07486
 Alpha virt. eigenvalues --   -0.07202  -0.07154  -0.05660  -0.05586  -0.05368

 Mulliken charges:
               1
     1  C    0.101923
     2  C   -0.407781
     3  C   -0.445781
     4  C   -0.014384
     5  C    0.027143
     6  C   -0.432102
     7  C   -0.398902
     8  C    0.073563
     9  C   -0.345039
    10  C    0.080385
    11  C   -0.613505
    12  C    0.680593
    13  C   -0.635809
    14  C    0.703101
    15  H    0.236970
    16  H    0.252852
    17  H    0.247256
    18  H    0.220695
    19  H    0.191055
    20  H    0.225497
    21  H    0.252020
    22  H    0.261439
    23  H    0.240015
    24  H    0.249400
    25  H    0.249398
 Sum of Mulliken charges =   1.00000

 Dipole moment (field-independent basis, Debye):
    X=             -0.9029    Y=              0.1803    Z=              0.0000  Tot=              0.9208
 Quadrupole moment (field-independent basis, Debye-Ang):
   XX=            -30.7988   YY=            -56.1917   ZZ=            -84.2694
   XY=             -0.0735   XZ=             -0.0001   YZ=             -0.0000

 Normal termination of Gaussian 16 at Thu Jul 14 14:17:06 2022.
