 Gaussian 16, Revision C.01,
 Gaussian 16:  ES64L-G16RevC.01  3-Jul-2019

 ----------------------------------------------
 #n M062X/6-311++G(d,p) TD SP pop=reg formcheck
 ----------------------------------------------

 ----
 SP_8
 ----
 Symbolic Z-matrix:
 Charge =  1 Multiplicity = 1

                         Standard orientation:
 ---------------------------------------------------------------------
 Center     Atomic      Atomic             Coordinates (Angstroms)
 Number     Number       Type             X           Y           Z
 ---------------------------------------------------------------------
      1          6           0        2.519224   -1.352623    0.000000
      2          6           0        3.728491   -0.662765    0.000000
      3          6           0        3.697315    0.719397    0.000000
      4          6           0        2.444301    1.415884    0.000000
      5          6           0       -2.493529    1.406601    0.000000
      6          6           0       -3.687896    0.712467    0.000000
      7          6           0       -3.691572   -0.684547    0.000000
      8          6           0       -2.478114   -1.375477    0.000000
      9          6           0        0.013155   -1.458540    0.000000
     10          6           0       -0.032758    1.433145    0.000000
     11          6           0        1.258750   -0.662570    0.000000
     12          6           0        1.230253    0.736121    0.000000
     13          6           0       -1.270451   -0.694574    0.000000
     14          6           0       -1.250775    0.728141    0.000000
     15          1           0        2.510531   -2.438251    0.000000
     16          1           0        4.667510   -1.198530    0.000000
     17          1           0        4.615203    1.295123    0.000000
     18          1           0        2.452892    2.501150    0.000000
     19          1           0       -0.034008    2.516273    0.000000
     20          1           0       -2.494293    2.490839    0.000000
     21          1           0       -4.624597    1.255544    0.000000
     22          1           0       -4.626970   -1.229993    0.000000
     23          1           0       -2.479459   -2.460660    0.000000
     24          1           0        0.047374   -2.147732    0.864016
     25          1           0        0.047457   -2.147731   -0.864016
 ---------------------------------------------------------------------

 SCF Done:  E(RM062X) =  -539.756181531     A.U. after   15 cycles

 Excitation energies and oscillator strengths:

 Excited State   1:      Singlet-A      2.7309 eV  454.00 nm  f=0.0228  <S**2>=0.000
      47 -> 48         0.70363
 This state for optimization and/or second-order correction.
 Total Energy, E(TD-HF/TD-DFT) =  -539.655821616
 Copying the excited state density for this state as the 1-particle RhoCI density.

 Excited State   2:      Singlet-A      3.3170 eV  373.78 nm  f=0.0160  <S**2>=0.000
      45 -> 48         0.64109
      46 -> 48         0.28456

 Excited State   3:      Singlet-A      3.4725 eV  357.05 nm  f=0.5461  <S**2>=0.000
      45 -> 48        -0.28712
      46 -> 48         0.63685

 The electronic state is 1-A.
 Alpha  occ. eigenvalues --  -10.77735 -10.73698 -10.72990 -10.72832 -10.72240
 Alpha  occ. eigenvalues --  -10.71827 -10.71779 -10.71138 -10.71075 -10.70422
 Alpha  occ. eigenvalues --  -10.70236 -10.69927 -10.69920 -10.69555  -1.16262
 Alpha  occ. eigenvalues --   -1.12263  -1.06761  -1.05619  -1.01169  -1.00148
 Alpha  occ. eigenvalues --   -0.95591  -0.90932  -0.86298  -0.85771  -0.83726
 Alpha  occ. eigenvalues --   -0.78300  -0.75909  -0.74260  -0.69617  -0.69169
 Alpha  occ. eigenvalues --   -0.68345  -0.68031  -0.67999  -0.64915  -0.64183
 Alpha  occ. eigenvalues --   -0.62785  -0.61697  -0.60147  -0.59319  -0.59124
 Alpha  occ. eigenvalues --   -0.56847  -0.55336  -0.54546  -0.52330  -0.46882
 Alpha  occ. eigenvalues --   -0.46033  -0.44109
 Alpha virt. eigenvalues --   -0.26116  -0.14719  -0.14125  -0.12834  -0.11172
 Alpha virt. eigenvalues --   -0.10087  -0.09242  -0.07993  -0.07974  -0.07484
 Alpha virt. eigenvalues --   -0.07200  -0.07156  -0.05659  -0.05588  -0.05364

 Mulliken charges:
               1
     1  C    0.099194
     2  C   -0.407045
     3  C   -0.444257
     4  C   -0.009846
     5  C    0.023632
     6  C   -0.433363
     7  C   -0.399874
     8  C    0.076410
     9  C   -0.343290
    10  C    0.081773
    11  C   -0.617875
    12  C    0.682335
    13  C   -0.635110
    14  C    0.700800
    15  H    0.237226
    16  H    0.253683
    17  H    0.247747
    18  H    0.221124
    19  H    0.191225
    20  H    0.224991
    21  H    0.251565
    22  H    0.260561
    23  H    0.239680
    24  H    0.249359
    25  H    0.249358
 Sum of Mulliken charges =   1.00000

 Dipole moment (field-independent basis, Debye):
    X=             -0.7234    Y=              0.1870    Z=              0.0000  Tot=              0.7471
 Quadrupole moment (field-independent basis, Debye-Ang):
   XX=            -30.8310   YY=            -56.1865   ZZ=            -84.2727
   XY=             -0.0592   XZ=             -0.0001   YZ=             -0.0000

 Normal termination of Gaussian 16 at Thu Jul 14 13:56:59 2022.
