 Gaussian 16, Revision C.01,
 Gaussian 16:  ES64L-G16RevC.01  3-Jul-2019

 ----------------------------------------------
 #n M062X/6-311++G(d,p) TD SP pop=reg formcheck
 ----------------------------------------------

 ----
 SP_2
 ----
 Symbolic Z-matrix:
 Charge =  1 Multiplicity = 1

                         Standard orientation:
 ---------------------------------------------------------------------
 Center     Atomic      Atomic             Coordinates (Angstroms)
 Number     Number       Type             X           Y           Z
 ---------------------------------------------------------------------
      1          6           0        2.503678   -1.361268    0.000000
      2          6           0        3.714595   -0.670883    0.000000
      3          6           0        3.693699    0.716679    0.000000
      4          6           0        2.462757    1.412435    0.000000
      5          6           0       -2.475064    1.410114    0.000000
      6          6           0       -3.691345    0.714946    0.000000
      7          6           0       -3.705365   -0.676329    0.000000
      8          6           0       -2.493401   -1.366981    0.000000
      9          6           0        0.003288   -1.458151    0.000000
     10          6           0       -0.008190    1.433212    0.000000
     11          6           0        1.263164   -0.674631    0.000000
     12          6           0        1.237984    0.733136    0.000000
     13          6           0       -1.266089   -0.682632    0.000000
     14          6           0       -1.243115    0.731140    0.000000
     15          1           0        2.498903   -2.446666    0.000000
     16          1           0        4.652237   -1.210342    0.000000
     17          1           0        4.618704    1.280228    0.000000
     18          1           0        2.468415    2.497226    0.000000
     19          1           0       -0.008502    2.516273    0.000000
     20          1           0       -2.478765    2.494648    0.000000
     21          1           0       -4.621052    1.270333    0.000000
     22          1           0       -4.642102   -1.218208    0.000000
     23          1           0       -2.491134   -2.452268    0.000000
     24          1           0        0.011844   -2.147977    0.863832
     25          1           0        0.011864   -2.147977   -0.863832
 ---------------------------------------------------------------------

 SCF Done:  E(RM062X) =  -539.758835740     A.U. after   15 cycles

 Excitation energies and oscillator strengths:

 Excited State   1:      Singlet-A      2.8047 eV  442.05 nm  f=0.0278  <S**2>=0.000
      47 -> 48         0.70417
 This state for optimization and/or second-order correction.
 Total Energy, E(TD-HF/TD-DFT) =  -539.655763779
 Copying the excited state density for this state as the 1-particle RhoCI density.

 Excited State   2:      Singlet-A      3.2472 eV  381.82 nm  f=0.0032  <S**2>=0.000
      45 -> 48         0.62462
      46 -> 48         0.31994

 Excited State   3:      Singlet-A      3.4681 eV  357.50 nm  f=0.5568  <S**2>=0.000
      45 -> 48        -0.32187
      46 -> 48         0.62033

 The electronic state is 1-A.
 Alpha  occ. eigenvalues --  -10.77774 -10.73436 -10.73258 -10.72629 -10.72480
 Alpha  occ. eigenvalues --  -10.71554 -10.71393 -10.71283 -10.71071 -10.70931
 Alpha  occ. eigenvalues --  -10.70121 -10.70043 -10.69785 -10.69693  -1.16224
 Alpha  occ. eigenvalues --   -1.12261  -1.06766  -1.05572  -1.01179  -1.00059
 Alpha  occ. eigenvalues --   -0.95673  -0.90940  -0.86287  -0.85785  -0.83734
 Alpha  occ. eigenvalues --   -0.78331  -0.75859  -0.74289  -0.69474  -0.69195
 Alpha  occ. eigenvalues --   -0.68415  -0.68096  -0.68002  -0.64677  -0.64219
 Alpha  occ. eigenvalues --   -0.62952  -0.61779  -0.59937  -0.59516  -0.59056
 Alpha  occ. eigenvalues --   -0.56868  -0.55212  -0.54771  -0.52330  -0.46574
 Alpha  occ. eigenvalues --   -0.45995  -0.44437
 Alpha virt. eigenvalues --   -0.26105  -0.14709  -0.14147  -0.12842  -0.11167
 Alpha virt. eigenvalues --   -0.10084  -0.09230  -0.08016  -0.07984  -0.07480
 Alpha virt. eigenvalues --   -0.07197  -0.07161  -0.05657  -0.05592  -0.05356

 Mulliken charges:
               1
     1  C    0.090803
     2  C   -0.404524
     3  C   -0.439910
     4  C    0.003735
     5  C    0.012225
     6  C   -0.437214
     7  C   -0.402698
     8  C    0.085058
     9  C   -0.339891
    10  C    0.084304
    11  C   -0.627631
    12  C    0.688084
    13  C   -0.631650
    14  C    0.692918
    15  H    0.238062
    16  H    0.256221
    17  H    0.249210
    18  H    0.222492
    19  H    0.191496
    20  H    0.223470
    21  H    0.250168
    22  H    0.257944
    23  H    0.238683
    24  H    0.249323
    25  H    0.249323
 Sum of Mulliken charges =   1.00000

 Dipole moment (field-independent basis, Debye):
    X=             -0.1813    Y=              0.1981    Z=              0.0000  Tot=              0.2685
 Quadrupole moment (field-independent basis, Debye-Ang):
   XX=            -30.8853   YY=            -56.1774   ZZ=            -84.2780
   XY=             -0.0150   XZ=             -0.0000   YZ=             -0.0000

 Normal termination of Gaussian 16 at Thu Jul 14 12:56:34 2022.
