 Gaussian 16, Revision C.01,
 Gaussian 16:  ES64L-G16RevC.01  3-Jul-2019

 ----------------------------------------------
 #n M062X/6-311++G(d,p) TD SP pop=reg formcheck
 ----------------------------------------------

 ----
 SP_9
 ----
 Symbolic Z-matrix:
 Charge =  1 Multiplicity = 1

                         Standard orientation:
 ---------------------------------------------------------------------
 Center     Atomic      Atomic             Coordinates (Angstroms)
 Number     Number       Type             X           Y           Z
 ---------------------------------------------------------------------
      1          6           0        2.521811   -1.351173    0.000000
      2          6           0        3.730806   -0.661404    0.000000
      3          6           0        3.697920    0.719853    0.000000
      4          6           0        2.441226    1.416448    0.000000
      5          6           0       -2.496607    1.406005    0.000000
      6          6           0       -3.687324    0.712057    0.000000
      7          6           0       -3.689272   -0.685908    0.000000
      8          6           0       -2.475564   -1.376884    0.000000
      9          6           0        0.014800   -1.458599    0.000000
     10          6           0       -0.036853    1.433119    0.000000
     11          6           0        1.258007   -0.660564    0.000000
     12          6           0        1.228964    0.736614    0.000000
     13          6           0       -1.271172   -0.696568    0.000000
     14          6           0       -1.252051    0.727637    0.000000
     15          1           0        2.512466   -2.436844    0.000000
     16          1           0        4.670053   -1.196553    0.000000
     17          1           0        4.614615    1.297605    0.000000
     18          1           0        2.450306    2.501796    0.000000
     19          1           0       -0.038258    2.516259    0.000000
     20          1           0       -2.496881    2.490197    0.000000
     21          1           0       -4.625183    1.253078    0.000000
     22          1           0       -4.624446   -1.231948    0.000000
     23          1           0       -2.477510   -2.462054    0.000000
     24          1           0        0.053296   -2.147669    0.864047
     25          1           0        0.053388   -2.147669   -0.864047
 ---------------------------------------------------------------------

 SCF Done:  E(RM062X) =  -539.755427934     A.U. after   15 cycles

 Excitation energies and oscillator strengths:

 Excited State   1:      Singlet-A      2.7132 eV  456.97 nm  f=0.0218  <S**2>=0.000
      47 -> 48         0.70356
 This state for optimization and/or second-order correction.
 Total Energy, E(TD-HF/TD-DFT) =  -539.655720148
 Copying the excited state density for this state as the 1-particle RhoCI density.

 Excited State   2:      Singlet-A      3.3334 eV  371.94 nm  f=0.0212  <S**2>=0.000
      45 -> 48         0.63822
      46 -> 48         0.29055

 Excited State   3:      Singlet-A      3.4741 eV  356.88 nm  f=0.5410  <S**2>=0.000
      45 -> 48        -0.29329
      46 -> 48         0.63407

 The electronic state is 1-A.
 Alpha  occ. eigenvalues --  -10.77724 -10.73740 -10.72944 -10.72863 -10.72198
 Alpha  occ. eigenvalues --  -10.71919 -10.71815 -10.71094 -10.71077 -10.70339
 Alpha  occ. eigenvalues --  -10.70255 -10.69942 -10.69907 -10.69531  -1.16273
 Alpha  occ. eigenvalues --   -1.12264  -1.06760  -1.05633  -1.01166  -1.00173
 Alpha  occ. eigenvalues --   -0.95569  -0.90930  -0.86300  -0.85768  -0.83724
 Alpha  occ. eigenvalues --   -0.78291  -0.75923  -0.74252  -0.69650  -0.69168
 Alpha  occ. eigenvalues --   -0.68326  -0.68014  -0.67997  -0.64971  -0.64177
 Alpha  occ. eigenvalues --   -0.62746  -0.61674  -0.60190  -0.59280  -0.59141
 Alpha  occ. eigenvalues --   -0.56841  -0.55358  -0.54495  -0.52331  -0.46960
 Alpha  occ. eigenvalues --   -0.46039  -0.44030
 Alpha virt. eigenvalues --   -0.26119  -0.14721  -0.14119  -0.12832  -0.11174
 Alpha virt. eigenvalues --   -0.10088  -0.09245  -0.07987  -0.07972  -0.07485
 Alpha virt. eigenvalues --   -0.07201  -0.07155  -0.05659  -0.05587  -0.05366

 Mulliken charges:
               1
     1  C    0.100564
     2  C   -0.407421
     3  C   -0.445014
     4  C   -0.012116
     5  C    0.025409
     6  C   -0.432732
     7  C   -0.399389
     8  C    0.074983
     9  C   -0.344127
    10  C    0.081114
    11  C   -0.615767
    12  C    0.681449
    13  C   -0.635483
    14  C    0.701975
    15  H    0.237096
    16  H    0.253266
    17  H    0.247501
    18  H    0.220908
    19  H    0.191145
    20  H    0.225244
    21  H    0.251793
    22  H    0.261000
    23  H    0.239847
    24  H    0.249378
    25  H    0.249376
 Sum of Mulliken charges =   1.00000

 Dipole moment (field-independent basis, Debye):
    X=             -0.8132    Y=              0.1838    Z=              0.0000  Tot=              0.8338
 Quadrupole moment (field-independent basis, Debye-Ang):
   XX=            -30.8158   YY=            -56.1890   ZZ=            -84.2711
   XY=             -0.0664   XZ=             -0.0001   YZ=             -0.0000

 Normal termination of Gaussian 16 at Thu Jul 14 14:07:09 2022.
