 Gaussian 16, Revision C.01,
 Gaussian 16:  ES64L-G16RevC.01  3-Jul-2019

 ----------------------------------------------
 #n M062X/6-311++G(d,p) TD SP pop=reg formcheck
 ----------------------------------------------

 ----
 SP_7
 ----
 Symbolic Z-matrix:
 Charge =  1 Multiplicity = 1

                         Standard orientation:
 ---------------------------------------------------------------------
 Center     Atomic      Atomic             Coordinates (Angstroms)
 Number     Number       Type             X           Y           Z
 ---------------------------------------------------------------------
      1          6           0        2.516635   -1.354070    0.000000
      2          6           0        3.726176   -0.664124    0.000000
      3          6           0        3.696711    0.718942    0.000000
      4          6           0        2.447377    1.415317    0.000000
      5          6           0       -2.490451    1.407194    0.000000
      6          6           0       -3.688469    0.712878    0.000000
      7          6           0       -3.693871   -0.683184    0.000000
      8          6           0       -2.480664   -1.374067    0.000000
      9          6           0        0.011511   -1.458478    0.000000
     10          6           0       -0.028664    1.433167    0.000000
     11          6           0        1.259490   -0.664577    0.000000
     12          6           0        1.231542    0.735627    0.000000
     13          6           0       -1.269729   -0.692581    0.000000
     14          6           0       -1.249499    0.728644    0.000000
     15          1           0        2.508595   -2.439657    0.000000
     16          1           0        4.664966   -1.200505    0.000000
     17          1           0        4.615790    1.292642    0.000000
     18          1           0        2.455479    2.500501    0.000000
     19          1           0       -0.029757    2.516283    0.000000
     20          1           0       -2.491705    2.491479    0.000000
     21          1           0       -4.624010    1.258009    0.000000
     22          1           0       -4.629494   -1.228035    0.000000
     23          1           0       -2.481407   -2.459265    0.000000
     24          1           0        0.041453   -2.147788    0.863985
     25          1           0        0.041525   -2.147788   -0.863985
 ---------------------------------------------------------------------

 SCF Done:  E(RM062X) =  -539.756845887     A.U. after   15 cycles

 Excitation energies and oscillator strengths:

 Excited State   1:      Singlet-A      2.7475 eV  451.26 nm  f=0.0237  <S**2>=0.000
      47 -> 48         0.70371
 This state for optimization and/or second-order correction.
 Total Energy, E(TD-HF/TD-DFT) =  -539.655875764
 Copying the excited state density for this state as the 1-particle RhoCI density.

 Excited State   2:      Singlet-A      3.3014 eV  375.55 nm  f=0.0123  <S**2>=0.000
      45 -> 48         0.64145
      46 -> 48         0.28403

 Excited State   3:      Singlet-A      3.4712 eV  357.17 nm  f=0.5491  <S**2>=0.000
      45 -> 48        -0.28644
      46 -> 48         0.63719

 The electronic state is 1-A.
 Alpha  occ. eigenvalues --  -10.77745 -10.73655 -10.73035 -10.72800 -10.72282
 Alpha  occ. eigenvalues --  -10.71743 -10.71735 -10.71181 -10.71074 -10.70505
 Alpha  occ. eigenvalues --  -10.70217 -10.69946 -10.69898 -10.69578  -1.16252
 Alpha  occ. eigenvalues --   -1.12262  -1.06762  -1.05606  -1.01171  -1.00126
 Alpha  occ. eigenvalues --   -0.95611  -0.90934  -0.86295  -0.85775  -0.83728
 Alpha  occ. eigenvalues --   -0.78308  -0.75897  -0.74267  -0.69586  -0.69172
 Alpha  occ. eigenvalues --   -0.68362  -0.68046  -0.68000  -0.64862  -0.64189
 Alpha  occ. eigenvalues --   -0.62821  -0.61718  -0.60106  -0.59357  -0.59107
 Alpha  occ. eigenvalues --   -0.56852  -0.55313  -0.54594  -0.52330  -0.46810
 Alpha  occ. eigenvalues --   -0.46027  -0.44182
 Alpha virt. eigenvalues --   -0.26114  -0.14716  -0.14131  -0.12836  -0.11171
 Alpha virt. eigenvalues --   -0.10086  -0.09239  -0.07999  -0.07977  -0.07483
 Alpha virt. eigenvalues --   -0.07199  -0.07157  -0.05658  -0.05589  -0.05362

 Mulliken charges:
               1
     1  C    0.097814
     2  C   -0.406657
     3  C   -0.443509
     4  C   -0.007575
     5  C    0.021814
     6  C   -0.433997
     7  C   -0.400356
     8  C    0.077841
     9  C   -0.342529
    10  C    0.082363
    11  C   -0.619835
    12  C    0.683248
    13  C   -0.634686
    14  C    0.699578
    15  H    0.237359
    16  H    0.254101
    17  H    0.247992
    18  H    0.221344
    19  H    0.191295
    20  H    0.224737
    21  H    0.251336
    22  H    0.260123
    23  H    0.239512
    24  H    0.249343
    25  H    0.249343
 Sum of Mulliken charges =   1.00000

 Dipole moment (field-independent basis, Debye):
    X=             -0.6333    Y=              0.1898    Z=              0.0000  Tot=              0.6611
 Quadrupole moment (field-independent basis, Debye-Ang):
   XX=            -30.8445   YY=            -56.1842   ZZ=            -84.2741
   XY=             -0.0520   XZ=             -0.0001   YZ=             -0.0000

 Normal termination of Gaussian 16 at Thu Jul 14 13:47:29 2022.
