 Gaussian 16, Revision C.01,
 Gaussian 16:  ES64L-G16RevC.01  3-Jul-2019

 ----------------------------------------------
 #n M062X/6-311++G(d,p) TD SP pop=reg formcheck
 ----------------------------------------------

 ----
 SP_6
 ----
 Symbolic Z-matrix:
 Charge =  1 Multiplicity = 1

                         Standard orientation:
 ---------------------------------------------------------------------
 Center     Atomic      Atomic             Coordinates (Angstroms)
 Number     Number       Type             X           Y           Z
 ---------------------------------------------------------------------
      1          6           0        2.514045   -1.355515    0.000000
      2          6           0        3.723860   -0.665481    0.000000
      3          6           0        3.696107    0.718488    0.000000
      4          6           0        2.450452    1.414747    0.000000
      5          6           0       -2.487373    1.407785    0.000000
      6          6           0       -3.689043    0.713290    0.000000
      7          6           0       -3.696171   -0.681818    0.000000
      8          6           0       -2.483213   -1.372655    0.000000
      9          6           0        0.009866   -1.458416    0.000000
     10          6           0       -0.024569    1.433185    0.000000
     11          6           0        1.260229   -0.666586    0.000000
     12          6           0        1.232830    0.735131    0.000000
     13          6           0       -1.269005   -0.690589    0.000000
     14          6           0       -1.248222    0.729145    0.000000
     15          1           0        2.506658   -2.441062    0.000000
     16          1           0        4.662422   -1.202478    0.000000
     17          1           0        4.616375    1.290159    0.000000
     18          1           0        2.458066    2.499851    0.000000
     19          1           0       -0.025506    2.516289    0.000000
     20          1           0       -2.489117    2.492117    0.000000
     21          1           0       -4.623421    1.260474    0.000000
     22          1           0       -4.632017   -1.226075    0.000000
     23          1           0       -2.483354   -2.457869    0.000000
     24          1           0        0.035531   -2.147838    0.863955
     25          1           0        0.035593   -2.147838   -0.863955
 ---------------------------------------------------------------------

 SCF Done:  E(RM062X) =  -539.757421216     A.U. after   15 cycles

 Excitation energies and oscillator strengths:

 Excited State   1:      Singlet-A      2.7628 eV  448.77 nm  f=0.0246  <S**2>=0.000
      47 -> 48         0.70379
 This state for optimization and/or second-order correction.
 Total Energy, E(TD-HF/TD-DFT) =  -539.655890956
 Copying the excited state density for this state as the 1-particle RhoCI density.

 Excited State   2:      Singlet-A      3.2870 eV  377.19 nm  f=0.0095  <S**2>=0.000
      45 -> 48         0.63988
      46 -> 48         0.28777

 Excited State   3:      Singlet-A      3.4702 eV  357.28 nm  f=0.5517  <S**2>=0.000
      45 -> 48        -0.29005
      46 -> 48         0.63558

 The electronic state is 1-A.
 Alpha  occ. eigenvalues --  -10.77753 -10.73612 -10.73080 -10.72767 -10.72323
 Alpha  occ. eigenvalues --  -10.71707 -10.71644 -10.71224 -10.71074 -10.70589
 Alpha  occ. eigenvalues --  -10.70198 -10.69966 -10.69876 -10.69601  -1.16244
 Alpha  occ. eigenvalues --   -1.12262  -1.06763  -1.05596  -1.01173  -1.00107
 Alpha  occ. eigenvalues --   -0.95629  -0.90936  -0.86293  -0.85778  -0.83729
 Alpha  occ. eigenvalues --   -0.78315  -0.75886  -0.74273  -0.69558  -0.69175
 Alpha  occ. eigenvalues --   -0.68377  -0.68060  -0.68001  -0.64813  -0.64196
 Alpha  occ. eigenvalues --   -0.62855  -0.61735  -0.60066  -0.59395  -0.59093
 Alpha  occ. eigenvalues --   -0.56857  -0.55290  -0.54638  -0.52330  -0.46745
 Alpha  occ. eigenvalues --   -0.46020  -0.44250
 Alpha virt. eigenvalues --   -0.26111  -0.14714  -0.14136  -0.12838  -0.11170
 Alpha virt. eigenvalues --   -0.10086  -0.09236  -0.08004  -0.07979  -0.07482
 Alpha virt. eigenvalues --   -0.07199  -0.07158  -0.05658  -0.05590  -0.05360

 Mulliken charges:
               1
     1  C    0.096425
     2  C   -0.406254
     3  C   -0.442770
     4  C   -0.005305
     5  C    0.019959
     6  C   -0.434633
     7  C   -0.400834
     8  C    0.079277
     9  C   -0.341845
    10  C    0.082885
    11  C   -0.621653
    12  C    0.684183
    13  C   -0.634207
    14  C    0.698315
    15  H    0.237495
    16  H    0.254522
    17  H    0.248237
    18  H    0.221567
    19  H    0.191355
    20  H    0.224483
    21  H    0.251105
    22  H    0.259686
    23  H    0.239345
    24  H    0.249332
    25  H    0.249331
 Sum of Mulliken charges =   1.00000

 Dipole moment (field-independent basis, Debye):
    X=             -0.5431    Y=              0.1922    Z=              0.0000  Tot=              0.5761
 Quadrupole moment (field-independent basis, Debye-Ang):
   XX=            -30.8562   YY=            -56.1823   ZZ=            -84.2753
   XY=             -0.0446   XZ=             -0.0001   YZ=             -0.0000

 Normal termination of Gaussian 16 at Thu Jul 14 13:38:27 2022.
