 Gaussian 16, Revision C.01,
 Gaussian 16:  ES64L-G16RevC.01  3-Jul-2019

 ----------------------------------------------
 #n M062X/6-311++G(d,p) TD SP pop=reg formcheck
 ----------------------------------------------

 -----
 SP_17
 -----
 Symbolic Z-matrix:
 Charge =  1 Multiplicity = 1

                         Standard orientation:
 ---------------------------------------------------------------------
 Center     Atomic      Atomic             Coordinates (Angstroms)
 Number     Number       Type             X           Y           Z
 ---------------------------------------------------------------------
      1          6           0        2.542483   -1.339487    0.000000
      2          6           0        3.749313   -0.650428    0.000000
      3          6           0        3.702788    0.723532    0.000000
      4          6           0        2.416632    1.420845    0.000000
      5          6           0       -2.521234    1.401127    0.000000
      6          6           0       -3.682774    0.708815    0.000000
      7          6           0       -3.670860   -0.696704    0.000000
      8          6           0       -2.455133   -1.388047    0.000000
      9          6           0        0.027958   -1.459027    0.000000
     10          6           0       -0.069607    1.432757    0.000000
     11          6           0        1.251999   -0.644554    0.000000
     12          6           0        1.218646    0.740513    0.000000
     13          6           0       -1.276868   -0.712557    0.000000
     14          6           0       -1.262253    0.723560    0.000000
     15          1           0        2.527916   -2.425537    0.000000
     16          1           0        4.690369   -1.180649    0.000000
     17          1           0        4.609864    1.317442    0.000000
     18          1           0        2.429618    2.506886    0.000000
     19          1           0       -0.072261    2.515997    0.000000
     20          1           0       -2.517587    2.484984    0.000000
     21          1           0       -4.629824    1.233351    0.000000
     22          1           0       -4.604227   -1.247492    0.000000
     23          1           0       -2.461897   -2.473148    0.000000
     24          1           0        0.100663   -2.146949    0.864293
     25          1           0        0.100837   -2.146947   -0.864293
 ---------------------------------------------------------------------

 SCF Done:  E(RM062X) =  -539.746156115     A.U. after   16 cycles

 Excitation energies and oscillator strengths:

 Excited State   1:      Singlet-A      2.5474 eV  486.71 nm  f=0.0163  <S**2>=0.000
      47 -> 48         0.70331
 This state for optimization and/or second-order correction.
 Total Energy, E(TD-HF/TD-DFT) =  -539.652542075
 Copying the excited state density for this state as the 1-particle RhoCI density.

 Excited State   2:      Singlet-A      3.4472 eV  359.66 nm  f=0.3311  <S**2>=0.000
      45 -> 48         0.32397
      46 -> 48         0.61753

 Excited State   3:      Singlet-A      3.5304 eV  351.19 nm  f=0.2272  <S**2>=0.000
      45 -> 48         0.62246
      46 -> 48        -0.32321

 The electronic state is 1-A.
 Alpha  occ. eigenvalues --  -10.77588 -10.74064 -10.73087 -10.72669 -10.72580
 Alpha  occ. eigenvalues --  -10.72073 -10.71845 -10.71090 -10.70733 -10.70403
 Alpha  occ. eigenvalues --  -10.70106 -10.69781 -10.69680 -10.69344  -1.16407
 Alpha  occ. eigenvalues --   -1.12277  -1.06748  -1.05807  -1.01134  -1.00442
 Alpha  occ. eigenvalues --   -0.95335  -0.90902  -0.86331  -0.85726  -0.83700
 Alpha  occ. eigenvalues --   -0.78188  -0.76080  -0.74179  -0.69946  -0.69198
 Alpha  occ. eigenvalues --   -0.68118  -0.67980  -0.67849  -0.65487  -0.64130
 Alpha  occ. eigenvalues --   -0.62436  -0.61401  -0.60554  -0.59313  -0.58959
 Alpha  occ. eigenvalues --   -0.56776  -0.55509  -0.54021  -0.52334  -0.47716
 Alpha  occ. eigenvalues --   -0.46084  -0.43297
 Alpha virt. eigenvalues --   -0.26156  -0.14750  -0.14047  -0.12801  -0.11191
 Alpha virt. eigenvalues --   -0.10097  -0.09286  -0.07942  -0.07912  -0.07498
 Alpha virt. eigenvalues --   -0.07211  -0.07137  -0.05665  -0.05575  -0.05389

 Mulliken charges:
               1
     1  C    0.111050
     2  C   -0.409871
     3  C   -0.451385
     4  C   -0.030088
     5  C    0.037794
     6  C   -0.427710
     7  C   -0.395464
     8  C    0.063802
     9  C   -0.353455
    10  C    0.073239
    11  C   -0.592820
    12  C    0.675682
    13  C   -0.637125
    14  C    0.709350
    15  H    0.236178
    16  H    0.250017
    17  H    0.245537
    18  H    0.219331
    19  H    0.190169
    20  H    0.227228
    21  H    0.253554
    22  H    0.264514
    23  H    0.241171
    24  H    0.249653
    25  H    0.249648
 Sum of Mulliken charges =   1.00000

 Dipole moment (field-independent basis, Debye):
    X=             -1.5239    Y=              0.1452    Z=              0.0000  Tot=              1.5308
 Quadrupole moment (field-independent basis, Debye-Ang):
   XX=            -30.6316   YY=            -56.2189   ZZ=            -84.2516
   XY=             -0.1211   XZ=             -0.0002   YZ=             -0.0000

 Normal termination of Gaussian 16 at Thu Jul 14 15:26:53 2022.
