 Gaussian 16, Revision C.01,
 Gaussian 16:  ES64L-G16RevC.01  3-Jul-2019

 ----------------------------------------------
 #n M062X/6-311++G(d,p) TD SP pop=reg formcheck
 ----------------------------------------------

 -----
 SP_20
 -----
 Symbolic Z-matrix:
 Charge =  1 Multiplicity = 1

                         Standard orientation:
 ---------------------------------------------------------------------
 Center     Atomic      Atomic             Coordinates (Angstroms)
 Number     Number       Type             X           Y           Z
 ---------------------------------------------------------------------
      1          6           0        2.550219   -1.335065    0.000000
      2          6           0        3.756247   -0.646275    0.000000
      3          6           0        3.704626    0.724924    0.000000
      4          6           0        2.407413    1.422441    0.000000
      5          6           0       -2.530470    1.399249    0.000000
      6          6           0       -3.681080    0.707617    0.000000
      7          6           0       -3.663951   -0.700710    0.000000
      8          6           0       -2.447460   -1.392190    0.000000
      9          6           0        0.032892   -1.459165    0.000000
     10          6           0       -0.081888    1.432550    0.000000
     11          6           0        1.249714   -0.638570    0.000000
     12          6           0        1.214775    0.741953    0.000000
     13          6           0       -1.278974   -0.718569    0.000000
     14          6           0       -1.266075    0.722012    0.000000
     15          1           0        2.533695   -2.421275    0.000000
     16          1           0        4.697975   -1.174646    0.000000
     17          1           0        4.608062    1.324874    0.000000
     18          1           0        2.421863    2.508757    0.000000
     19          1           0       -0.085010    2.515832    0.000000
     20          1           0       -2.525351    2.482995    0.000000
     21          1           0       -4.631542    1.225952    0.000000
     22          1           0       -4.596634   -1.253276    0.000000
     23          1           0       -2.456031   -2.477282    0.000000
     24          1           0        0.118422   -2.146578    0.864386
     25          1           0        0.118627   -2.146576   -0.864386
 ---------------------------------------------------------------------

 SCF Done:  E(RM062X) =  -539.741174365     A.U. after   16 cycles

 Excitation energies and oscillator strengths:

 Excited State   1:      Singlet-A      2.4797 eV  500.00 nm  f=0.0149  <S**2>=0.000
      47 -> 48         0.70327
 This state for optimization and/or second-order correction.
 Total Energy, E(TD-HF/TD-DFT) =  -539.650048549
 Copying the excited state density for this state as the 1-particle RhoCI density.

 Excited State   2:      Singlet-A      3.4609 eV  358.24 nm  f=0.4330  <S**2>=0.000
      45 -> 48         0.18264
      46 -> 48         0.67229

 Excited State   3:      Singlet-A      3.5869 eV  345.66 nm  f=0.1219  <S**2>=0.000
      45 -> 48         0.67721
      46 -> 48        -0.18322

 The electronic state is 1-A.
 Alpha  occ. eigenvalues --  -10.77515 -10.74178 -10.73157 -10.72955 -10.72443
 Alpha  occ. eigenvalues --  -10.72157 -10.71705 -10.71096 -10.70593 -10.70456
 Alpha  occ. eigenvalues --  -10.70163 -10.69715 -10.69469 -10.69270  -1.16478
 Alpha  occ. eigenvalues --   -1.12284  -1.06746  -1.05900  -1.01120  -1.00562
 Alpha  occ. eigenvalues --   -0.95233  -0.90882  -0.86345  -0.85704  -0.83688
 Alpha  occ. eigenvalues --   -0.78134  -0.76155  -0.74151  -0.70066  -0.69218
 Alpha  occ. eigenvalues --   -0.68024  -0.67971  -0.67783  -0.65688  -0.64112
 Alpha  occ. eigenvalues --   -0.62335  -0.61280  -0.60694  -0.59369  -0.58842
 Alpha  occ. eigenvalues --   -0.56743  -0.55550  -0.53819  -0.52336  -0.48032
 Alpha  occ. eigenvalues --   -0.46101  -0.43000
 Alpha virt. eigenvalues --   -0.26175  -0.14763  -0.14011  -0.12782  -0.11200
 Alpha virt. eigenvalues --   -0.10102  -0.09306  -0.07928  -0.07876  -0.07504
 Alpha virt. eigenvalues --   -0.07217  -0.07126  -0.05668  -0.05570  -0.05400

 Mulliken charges:
               1
     1  C    0.114699
     2  C   -0.410512
     3  C   -0.453887
     4  C   -0.036657
     5  C    0.041393
     6  C   -0.425818
     7  C   -0.394000
     8  C    0.059727
     9  C   -0.358074
    10  C    0.069013
    11  C   -0.581021
    12  C    0.674267
    13  C   -0.637368
    14  C    0.710999
    15  H    0.235895
    16  H    0.248845
    17  H    0.244807
    18  H    0.218819
    19  H    0.189660
    20  H    0.227941
    21  H    0.254184
    22  H    0.265829
    23  H    0.241650
    24  H    0.249808
    25  H    0.249801
 Sum of Mulliken charges =   1.00000

 Dipole moment (field-independent basis, Debye):
    X=             -1.7852    Y=              0.1247    Z=              0.0000  Tot=              1.7896
 Quadrupole moment (field-independent basis, Debye-Ang):
   XX=            -30.5348   YY=            -56.2345   ZZ=            -84.2410
   XY=             -0.1398   XZ=             -0.0002   YZ=             -0.0000

 Normal termination of Gaussian 16 at Thu Jul 14 15:57:41 2022.
