 Gaussian 16, Revision C.01,
 Gaussian 16:  ES64L-G16RevC.01  3-Jul-2019

 ----------------------------------------------
 #n M062X/6-311++G(d,p) TD SP pop=reg formcheck
 ----------------------------------------------

 -----
 SP_12
 -----
 Symbolic Z-matrix:
 Charge =  1 Multiplicity = 1

                         Standard orientation:
 ---------------------------------------------------------------------
 Center     Atomic      Atomic             Coordinates (Angstroms)
 Number     Number       Type             X           Y           Z
 ---------------------------------------------------------------------
      1          6           0        2.529570   -1.346809    0.000000
      2          6           0        3.737749   -0.657305    0.000000
      3          6           0        3.699740    0.721227    0.000000
      4          6           0        2.432001    1.418120    0.000000
      5          6           0       -2.505841    1.404199    0.000000
      6          6           0       -3.685612    0.710834    0.000000
      7          6           0       -3.682370   -0.689976    0.000000
      8          6           0       -2.467908   -1.381089    0.000000
      9          6           0        0.019734   -1.458771    0.000000
     10          6           0       -0.049136    1.433015    0.000000
     11          6           0        1.255768   -0.654552    0.000000
     12          6           0        1.225095    0.738086    0.000000
     13          6           0       -1.273322   -0.702556    0.000000
     14          6           0       -1.255878    0.726117    0.000000
     15          1           0        2.518267   -2.432614    0.000000
     16          1           0        4.677677   -1.190607    0.000000
     17          1           0        4.612843    1.305047    0.000000
     18          1           0        2.442546    2.503722    0.000000
     19          1           0       -0.051010    2.516191    0.000000
     20          1           0       -2.504646    2.488258    0.000000
     21          1           0       -4.626934    1.245681    0.000000
     22          1           0       -4.616868   -1.237797    0.000000
     23          1           0       -2.471660   -2.466225    0.000000
     24          1           0        0.071060   -2.147445    0.864139
     25          1           0        0.071183   -2.147444   -0.864139
 ---------------------------------------------------------------------

 SCF Done:  E(RM062X) =  -539.752629295     A.U. after   15 cycles

 Excitation energies and oscillator strengths:

 Excited State   1:      Singlet-A      2.6548 eV  467.01 nm  f=0.0194  <S**2>=0.000
      47 -> 48         0.70342
 This state for optimization and/or second-order correction.
 Total Energy, E(TD-HF/TD-DFT) =  -539.655065572
 Copying the excited state density for this state as the 1-particle RhoCI density.

 Excited State   2:      Singlet-A      3.3848 eV  366.30 nm  f=0.0590  <S**2>=0.000
      45 -> 48         0.60267
      46 -> 48         0.35685

 Excited State   3:      Singlet-A      3.4823 eV  356.04 nm  f=0.5028  <S**2>=0.000
      45 -> 48        -0.36032
      46 -> 48         0.59906

 The electronic state is 1-A.
 Alpha  occ. eigenvalues --  -10.77683 -10.73865 -10.72953 -10.72808 -10.72198
 Alpha  occ. eigenvalues --  -10.72069 -10.71917 -10.71081 -10.70961 -10.70312
 Alpha  occ. eigenvalues --  -10.70098 -10.70005 -10.69848 -10.69461  -1.16313
 Alpha  occ. eigenvalues --   -1.12268  -1.06755  -1.05685  -1.01156  -1.00261
 Alpha  occ. eigenvalues --   -0.95491  -0.90923  -0.86311  -0.85755  -0.83716
 Alpha  occ. eigenvalues --   -0.78259  -0.75973  -0.74227  -0.69755  -0.69172
 Alpha  occ. eigenvalues --   -0.68258  -0.67992  -0.67958  -0.65155  -0.64159
 Alpha  occ. eigenvalues --   -0.62626  -0.61588  -0.60324  -0.59203  -0.59160
 Alpha  occ. eigenvalues --   -0.56821  -0.55422  -0.54330  -0.52332  -0.47222
 Alpha  occ. eigenvalues --   -0.46057  -0.43771
 Alpha virt. eigenvalues --   -0.26131  -0.14731  -0.14097  -0.12823  -0.11179
 Alpha virt. eigenvalues --   -0.10090  -0.09258  -0.07964  -0.07962  -0.07489
 Alpha virt. eigenvalues --   -0.07204  -0.07150  -0.05661  -0.05584  -0.05373

 Mulliken charges:
               1
     1  C    0.104605
     2  C   -0.408458
     3  C   -0.447342
     4  C   -0.018908
     5  C    0.030467
     6  C   -0.430847
     7  C   -0.397922
     8  C    0.070739
     9  C   -0.347087
    10  C    0.078715
    11  C   -0.608493
    12  C    0.678985
    13  C   -0.636338
    14  C    0.705194
    15  H    0.236726
    16  H    0.252029
    17  H    0.246764
    18  H    0.220283
    19  H    0.190848
    20  H    0.225999
    21  H    0.252467
    22  H    0.262317
    23  H    0.240349
    24  H    0.249456
    25  H    0.249453
 Sum of Mulliken charges =   1.00000

 Dipole moment (field-independent basis, Debye):
    X=             -1.0817    Y=              0.1721    Z=              0.0000  Tot=              1.0953
 Quadrupole moment (field-independent basis, Debye-Ang):
   XX=            -30.7596   YY=            -56.1981   ZZ=            -84.2653
   XY=             -0.0876   XZ=             -0.0001   YZ=             -0.0000

 Normal termination of Gaussian 16 at Thu Jul 14 14:37:06 2022.
