 Gaussian 16, Revision C.01,
 Gaussian 16:  ES64L-G16RevC.01  3-Jul-2019

 ----------------------------------------------
 #n M062X/6-311++G(d,p) TD SP pop=reg formcheck
 ----------------------------------------------

 -----
 SP_15
 -----
 Symbolic Z-matrix:
 Charge =  1 Multiplicity = 1

                         Standard orientation:
 ---------------------------------------------------------------------
 Center     Atomic      Atomic             Coordinates (Angstroms)
 Number     Number       Type             X           Y           Z
 ---------------------------------------------------------------------
      1          6           0        2.537320   -1.342424    0.000000
      2          6           0        3.744688   -0.653186    0.000000
      3          6           0        3.701567    0.722607    0.000000
      4          6           0        2.422779    1.419765    0.000000
      5          6           0       -2.515077    1.402365    0.000000
      6          6           0       -3.683907    0.709619    0.000000
      7          6           0       -3.675465   -0.694021    0.000000
      8          6           0       -2.460245   -1.385272    0.000000
      9          6           0        0.024668   -1.458929    0.000000
     10          6           0       -0.061419    1.432873    0.000000
     11          6           0        1.253512   -0.648550    0.000000
     12          6           0        1.221226    0.739546    0.000000
     13          6           0       -1.275455   -0.708553    0.000000
     14          6           0       -1.259704    0.724586    0.000000
     15          1           0        2.524059   -2.428372    0.000000
     16          1           0        4.685295   -1.184639    0.000000
     17          1           0        4.611060    1.312485    0.000000
     18          1           0        2.434788    2.505627    0.000000
     19          1           0       -0.063761    2.516087    0.000000
     20          1           0       -2.512411    2.486300    0.000000
     21          1           0       -4.628672    1.238283    0.000000
     22          1           0       -4.609285   -1.243622    0.000000
     23          1           0       -2.465804   -2.470383    0.000000
     24          1           0        0.088822   -2.147166    0.864232
     25          1           0        0.088976   -2.147165   -0.864232
 ---------------------------------------------------------------------

 SCF Done:  E(RM062X) =  -539.749018375     A.U. after   16 cycles

 Excitation energies and oscillator strengths:

 Excited State   1:      Singlet-A      2.5914 eV  478.44 nm  f=0.0174  <S**2>=0.000
      47 -> 48         0.70334
 This state for optimization and/or second-order correction.
 Total Energy, E(TD-HF/TD-DFT) =  -539.653785849
 Copying the excited state density for this state as the 1-particle RhoCI density.

 Excited State   2:      Singlet-A      3.4292 eV  361.56 nm  f=0.1979  <S**2>=0.000
      45 -> 48         0.46691
      46 -> 48         0.51958

 Excited State   3:      Singlet-A      3.5030 eV  353.93 nm  f=0.3622  <S**2>=0.000
      45 -> 48         0.52410
      46 -> 48        -0.46478

 The electronic state is 1-A.
 Alpha  occ. eigenvalues --  -10.77630 -10.73986 -10.73036 -10.72671 -10.72480
 Alpha  occ. eigenvalues --  -10.72013 -10.71936 -10.71086 -10.70825 -10.70367
 Alpha  occ. eigenvalues --  -10.70067 -10.69874 -10.69778 -10.69391  -1.16366
 Alpha  occ. eigenvalues --   -1.12273  -1.06751  -1.05753  -1.01143  -1.00365
 Alpha  occ. eigenvalues --   -0.95400  -0.90911  -0.86323  -0.85738  -0.83707
 Alpha  occ. eigenvalues --   -0.78219  -0.76034  -0.74199  -0.69868  -0.69185
 Alpha  occ. eigenvalues --   -0.68177  -0.67986  -0.67894  -0.65353  -0.64142
 Alpha  occ. eigenvalues --   -0.62509  -0.61481  -0.60461  -0.59270  -0.59039
 Alpha  occ. eigenvalues --   -0.56795  -0.55478  -0.54149  -0.52333  -0.47512
 Alpha  occ. eigenvalues --   -0.46073  -0.43491
 Alpha virt. eigenvalues --   -0.26145  -0.14742  -0.14069  -0.12811  -0.11186
 Alpha virt. eigenvalues --   -0.10094  -0.09274  -0.07951  -0.07934  -0.07494
 Alpha virt. eigenvalues --   -0.07208  -0.07143  -0.05664  -0.05579  -0.05382

 Mulliken charges:
               1
     1  C    0.108522
     2  C   -0.409356
     3  C   -0.449746
     4  C   -0.025644
     5  C    0.035048
     6  C   -0.428966
     7  C   -0.396446
     8  C    0.066555
     9  C   -0.350700
    10  C    0.075658
    11  C   -0.599659
    12  C    0.676869
    13  C   -0.636883
    14  C    0.707886
    15  H    0.236386
    16  H    0.250814
    17  H    0.246027
    18  H    0.219698
    19  H    0.190467
    20  H    0.226742
    21  H    0.253125
    22  H    0.263636
    23  H    0.240845
    24  H    0.249565
    25  H    0.249560
 Sum of Mulliken charges =   1.00000

 Dipole moment (field-independent basis, Debye):
    X=             -1.3479    Y=              0.1570    Z=              0.0000  Tot=              1.3570
 Quadrupole moment (field-independent basis, Debye-Ang):
   XX=            -30.6879   YY=            -56.2098   ZZ=            -84.2576
   XY=             -0.1080   XZ=             -0.0001   YZ=             -0.0000

 Normal termination of Gaussian 16 at Thu Jul 14 15:06:37 2022.
