 Gaussian 16, Revision C.01,
 Gaussian 16:  ES64L-G16RevC.01  3-Jul-2019

 ----------------------------------------------
 #n M062X/6-311++G(d,p) TD SP pop=reg formcheck
 ----------------------------------------------

 ----
 SP_1
 ----
 Symbolic Z-matrix:
 Charge =  1 Multiplicity = 1

                         Standard orientation:
 ---------------------------------------------------------------------
 Center     Atomic      Atomic             Coordinates (Angstroms)
 Number     Number       Type             X           Y           Z
 ---------------------------------------------------------------------
      1          6           0        2.501085   -1.362700    0.000000
      2          6           0        3.712278   -0.672228    0.000000
      3          6           0        3.693099    0.716229    0.000000
      4          6           0        2.465833    1.411849    0.000000
      5          6           0       -2.471987    1.410689    0.000000
      6          6           0       -3.691922    0.715363    0.000000
      7          6           0       -3.707663   -0.674950    0.000000
      8          6           0       -2.495946   -1.365557    0.000000
      9          6           0        0.001644   -1.458081    0.000000
     10          6           0       -0.004095    1.433208    0.000000
     11          6           0        1.263893   -0.676645    0.000000
     12          6           0        1.239272    0.732634    0.000000
     13          6           0       -1.265355   -0.680645    0.000000
     14          6           0       -1.241837    0.731636    0.000000
     15          1           0        2.496962   -2.448063    0.000000
     16          1           0        4.649689   -1.212302    0.000000
     17          1           0        4.619282    1.277744    0.000000
     18          1           0        2.471003    2.496564    0.000000
     19          1           0       -0.004251    2.516259    0.000000
     20          1           0       -2.476178    2.495275    0.000000
     21          1           0       -4.620457    1.272797    0.000000
     22          1           0       -4.644621   -1.216235    0.000000
     23          1           0       -2.493078   -2.450865    0.000000
     24          1           0        0.005922   -2.147996    0.863801
     25          1           0        0.005932   -2.147996   -0.863801
 ---------------------------------------------------------------------

 SCF Done:  E(RM062X) =  -539.758968284     A.U. after   15 cycles

 Excitation energies and oscillator strengths:

 Excited State   1:      Singlet-A      2.8091 eV  441.37 nm  f=0.0282  <S**2>=0.000
      47 -> 48         0.70422
 This state for optimization and/or second-order correction.
 Total Energy, E(TD-HF/TD-DFT) =  -539.655736597
 Copying the excited state density for this state as the 1-particle RhoCI density.

 Excited State   2:      Singlet-A      3.2431 eV  382.30 nm  f=0.0026  <S**2>=0.000
      45 -> 48         0.62201
      46 -> 48         0.32502

 Excited State   3:      Singlet-A      3.4679 eV  357.52 nm  f=0.5571  <S**2>=0.000
      45 -> 48        -0.32691
      46 -> 48         0.61773

 The electronic state is 1-A.
 Alpha  occ. eigenvalues --  -10.77775 -10.73391 -10.73303 -10.72592 -10.72518
 Alpha  occ. eigenvalues --  -10.71514 -10.71434 -10.71194 -10.71071 -10.71018
 Alpha  occ. eigenvalues --  -10.70101 -10.70062 -10.69761 -10.69715  -1.16222
 Alpha  occ. eigenvalues --   -1.12261  -1.06767  -1.05570  -1.01179  -1.00055
 Alpha  occ. eigenvalues --   -0.95678  -0.90941  -0.86287  -0.85786  -0.83735
 Alpha  occ. eigenvalues --   -0.78333  -0.75857  -0.74291  -0.69465  -0.69198
 Alpha  occ. eigenvalues --   -0.68419  -0.68100  -0.68002  -0.64663  -0.64222
 Alpha  occ. eigenvalues --   -0.62963  -0.61783  -0.59920  -0.59532  -0.59052
 Alpha  occ. eigenvalues --   -0.56870  -0.55202  -0.54786  -0.52330  -0.46557
 Alpha  occ. eigenvalues --   -0.45992  -0.44456
 Alpha virt. eigenvalues --   -0.26105  -0.14708  -0.14148  -0.12843  -0.11167
 Alpha virt. eigenvalues --   -0.10084  -0.09229  -0.08017  -0.07984  -0.07480
 Alpha virt. eigenvalues --   -0.07197  -0.07161  -0.05657  -0.05592  -0.05356

 Mulliken charges:
               1
     1  C    0.089385
     2  C   -0.404064
     3  C   -0.439217
     4  C    0.005975
     5  C    0.010225
     6  C   -0.437871
     7  C   -0.403150
     8  C    0.086510
     9  C   -0.339600
    10  C    0.084495
    11  C   -0.628830
    12  C    0.689078
    13  C   -0.630827
    14  C    0.691503
    15  H    0.238209
    16  H    0.256650
    17  H    0.249452
    18  H    0.222729
    19  H    0.191506
    20  H    0.223219
    21  H    0.249931
    22  H    0.257511
    23  H    0.238520
    24  H    0.249330
    25  H    0.249330
 Sum of Mulliken charges =   1.00000

 Dipole moment (field-independent basis, Debye):
    X=             -0.0906    Y=              0.1987    Z=              0.0000  Tot=              0.2184
 Quadrupole moment (field-independent basis, Debye-Ang):
   XX=            -30.8881   YY=            -56.1769   ZZ=            -84.2782
   XY=             -0.0075   XZ=             -0.0000   YZ=             -0.0000

 Normal termination of Gaussian 16 at Thu Jul 14 12:37:48 2022.
