 Gaussian 16, Revision C.01,
 Gaussian 16:  ES64L-G16RevC.01  3-Jul-2019

 ----------------------------------------------
 #n M062X/6-311++G(d,p) TD SP pop=reg formcheck
 ----------------------------------------------

 -----
 SP_19
 -----
 Symbolic Z-matrix:
 Charge =  1 Multiplicity = 1

                         Standard orientation:
 ---------------------------------------------------------------------
 Center     Atomic      Atomic             Coordinates (Angstroms)
 Number     Number       Type             X           Y           Z
 ---------------------------------------------------------------------
      1          6           0        2.547642   -1.336542    0.000000
      2          6           0        3.753936   -0.647662    0.000000
      3          6           0        3.704013    0.724459    0.000000
      4          6           0        2.410485    1.421912    0.000000
      5          6           0       -2.527391    1.399878    0.000000
      6          6           0       -3.681644    0.708015    0.000000
      7          6           0       -3.666254   -0.699377    0.000000
      8          6           0       -2.450018   -1.390812    0.000000
      9          6           0        0.031248   -1.459120    0.000000
     10          6           0       -0.077795    1.432623    0.000000
     11          6           0        1.250477   -0.640563    0.000000
     12          6           0        1.216066    0.741474    0.000000
     13          6           0       -1.278274   -0.716564    0.000000
     14          6           0       -1.264801    0.722529    0.000000
     15          1           0        2.531770   -2.422697    0.000000
     16          1           0        4.695440   -1.176649    0.000000
     17          1           0        4.608664    1.322397    0.000000
     18          1           0        2.424448    2.508136    0.000000
     19          1           0       -0.080761    2.515891    0.000000
     20          1           0       -2.522763    2.483660    0.000000
     21          1           0       -4.630971    1.228419    0.000000
     22          1           0       -4.599165   -1.251351    0.000000
     23          1           0       -2.457987   -2.475905    0.000000
     24          1           0        0.112503   -2.146708    0.864355
     25          1           0        0.112697   -2.146706   -0.864355
 ---------------------------------------------------------------------

 SCF Done:  E(RM062X) =  -539.742927140     A.U. after   16 cycles

 Excitation energies and oscillator strengths:

 Excited State   1:      Singlet-A      2.5024 eV  495.46 nm  f=0.0153  <S**2>=0.000
      47 -> 48         0.70328
 This state for optimization and/or second-order correction.
 Total Energy, E(TD-HF/TD-DFT) =  -539.650965602
 Copying the excited state density for this state as the 1-particle RhoCI density.

 Excited State   2:      Singlet-A      3.4574 eV  358.61 nm  f=0.4112  <S**2>=0.000
      45 -> 48         0.21798
      46 -> 48         0.66183

 Excited State   3:      Singlet-A      3.5668 eV  347.60 nm  f=0.1449  <S**2>=0.000
      45 -> 48         0.66679
      46 -> 48        -0.21822

 The electronic state is 1-A.
 Alpha  occ. eigenvalues --  -10.77541 -10.74141 -10.73135 -10.72860 -10.72489
 Alpha  occ. eigenvalues --  -10.72129 -10.71752 -10.71094 -10.70640 -10.70439
 Alpha  occ. eigenvalues --  -10.70145 -10.69735 -10.69540 -10.69295  -1.16453
 Alpha  occ. eigenvalues --   -1.12281  -1.06746  -1.05868  -1.01125  -1.00522
 Alpha  occ. eigenvalues --   -0.95267  -0.90890  -0.86340  -0.85712  -0.83692
 Alpha  occ. eigenvalues --   -0.78153  -0.76129  -0.74160  -0.70026  -0.69211
 Alpha  occ. eigenvalues --   -0.68055  -0.67974  -0.67805  -0.65621  -0.64119
 Alpha  occ. eigenvalues --   -0.62367  -0.61319  -0.60647  -0.59352  -0.58881
 Alpha  occ. eigenvalues --   -0.56754  -0.55537  -0.53888  -0.52335  -0.47925
 Alpha  occ. eigenvalues --   -0.46095  -0.43100
 Alpha virt. eigenvalues --   -0.26168  -0.14759  -0.14024  -0.12789  -0.11197
 Alpha virt. eigenvalues --   -0.10100  -0.09299  -0.07933  -0.07888  -0.07502
 Alpha virt. eigenvalues --   -0.07215  -0.07130  -0.05667  -0.05572  -0.05396

 Mulliken charges:
               1
     1  C    0.113503
     2  C   -0.410316
     3  C   -0.453048
     4  C   -0.034481
     5  C    0.040266
     6  C   -0.426450
     7  C   -0.394486
     8  C    0.061078
     9  C   -0.356472
    10  C    0.070503
    11  C   -0.585167
    12  C    0.674689
    13  C   -0.637299
    14  C    0.710525
    15  H    0.235985
    16  H    0.249232
    17  H    0.245050
    18  H    0.218984
    19  H    0.189838
    20  H    0.227706
    21  H    0.253976
    22  H    0.265391
    23  H    0.241492
    24  H    0.249754
    25  H    0.249747
 Sum of Mulliken charges =   1.00000

 Dipole moment (field-independent basis, Debye):
    X=             -1.6985    Y=              0.1319    Z=              0.0000  Tot=              1.7036
 Quadrupole moment (field-independent basis, Debye-Ang):
   XX=            -30.5687   YY=            -56.2290   ZZ=            -84.2447
   XY=             -0.1337   XZ=             -0.0002   YZ=             -0.0000

 Normal termination of Gaussian 16 at Thu Jul 14 15:47:14 2022.
