 Gaussian 16, Revision C.01,
 Gaussian 16:  ES64L-G16RevC.01  3-Jul-2019

 ----------------------------------------------
 #n M062X/6-311++G(d,p) TD SP pop=reg formcheck
 ----------------------------------------------

 ----
 SP_5
 ----
 Symbolic Z-matrix:
 Charge =  1 Multiplicity = 1

                         Standard orientation:
 ---------------------------------------------------------------------
 Center     Atomic      Atomic             Coordinates (Angstroms)
 Number     Number       Type             X           Y           Z
 ---------------------------------------------------------------------
      1          6           0        2.511455   -1.356957    0.000000
      2          6           0        3.721544   -0.666835    0.000000
      3          6           0        3.695504    0.718034    0.000000
      4          6           0        2.453528    1.414173    0.000000
      5          6           0       -2.484296    1.408372    0.000000
      6          6           0       -3.689617    0.713703    0.000000
      7          6           0       -3.698470   -0.680449    0.000000
      8          6           0       -2.485761   -1.371240    0.000000
      9          6           0        0.008222   -1.458351    0.000000
     10          6           0       -0.020474    1.433198    0.000000
     11          6           0        1.260965   -0.668595    0.000000
     12          6           0        1.234119    0.734634    0.000000
     13          6           0       -1.268279   -0.688598    0.000000
     14          6           0       -1.246946    0.729646    0.000000
     15          1           0        2.504720   -2.442465    0.000000
     16          1           0        4.659877   -1.204448    0.000000
     17          1           0        4.616959    1.287677    0.000000
     18          1           0        2.460653    2.499198    0.000000
     19          1           0       -0.021255    2.516291    0.000000
     20          1           0       -2.486529    2.492753    0.000000
     21          1           0       -4.622831    1.262939    0.000000
     22          1           0       -4.634539   -1.224112    0.000000
     23          1           0       -2.485300   -2.456471    0.000000
     24          1           0        0.029609   -2.147882    0.863924
     25          1           0        0.029661   -2.147882   -0.863924
 ---------------------------------------------------------------------

 SCF Done:  E(RM062X) =  -539.757907713     A.U. after   15 cycles

 Excitation energies and oscillator strengths:

 Excited State   1:      Singlet-A      2.7764 eV  446.56 nm  f=0.0256  <S**2>=0.000
      47 -> 48         0.70389
 This state for optimization and/or second-order correction.
 Total Energy, E(TD-HF/TD-DFT) =  -539.655876726
 Copying the excited state density for this state as the 1-particle RhoCI density.

 Excited State   2:      Singlet-A      3.2741 eV  378.68 nm  f=0.0073  <S**2>=0.000
      45 -> 48         0.63683
      46 -> 48         0.29462

 Excited State   3:      Singlet-A      3.4694 eV  357.36 nm  f=0.5539  <S**2>=0.000
      45 -> 48        -0.29678
      46 -> 48         0.63251

 The electronic state is 1-A.
 Alpha  occ. eigenvalues --  -10.77760 -10.73568 -10.73125 -10.72733 -10.72363
 Alpha  occ. eigenvalues --  -10.71669 -10.71553 -10.71267 -10.71073 -10.70673
 Alpha  occ. eigenvalues --  -10.70179 -10.69985 -10.69853 -10.69624  -1.16237
 Alpha  occ. eigenvalues --   -1.12261  -1.06764  -1.05587  -1.01175  -1.00090
 Alpha  occ. eigenvalues --   -0.95644  -0.90937  -0.86291  -0.85780  -0.83731
 Alpha  occ. eigenvalues --   -0.78320  -0.75877  -0.74278  -0.69531  -0.69180
 Alpha  occ. eigenvalues --   -0.68390  -0.68072  -0.68001  -0.64770  -0.64202
 Alpha  occ. eigenvalues --   -0.62886  -0.61750  -0.60027  -0.59430  -0.59081
 Alpha  occ. eigenvalues --   -0.56860  -0.55267  -0.54679  -0.52330  -0.46688
 Alpha  occ. eigenvalues --   -0.46013  -0.44311
 Alpha virt. eigenvalues --   -0.26109  -0.14712  -0.14140  -0.12839  -0.11169
 Alpha virt. eigenvalues --   -0.10085  -0.09234  -0.08008  -0.07980  -0.07481
 Alpha virt. eigenvalues --   -0.07198  -0.07159  -0.05657  -0.05591  -0.05359

 Mulliken charges:
               1
     1  C    0.095029
     2  C   -0.405839
     3  C   -0.442041
     4  C   -0.003037
     5  C    0.018070
     6  C   -0.435273
     7  C   -0.401308
     8  C    0.080717
     9  C   -0.341239
    10  C    0.083339
    11  C   -0.623336
    12  C    0.685139
    13  C   -0.633668
    14  C    0.697013
    15  H    0.237633
    16  H    0.254944
    17  H    0.248481
    18  H    0.221794
    19  H    0.191406
    20  H    0.224229
    21  H    0.250873
    22  H    0.259249
    23  H    0.239179
    24  H    0.249324
    25  H    0.249323
 Sum of Mulliken charges =   1.00000

 Dipole moment (field-independent basis, Debye):
    X=             -0.4528    Y=              0.1943    Z=              0.0000  Tot=              0.4927
 Quadrupole moment (field-independent basis, Debye-Ang):
   XX=            -30.8661   YY=            -56.1807   ZZ=            -84.2762
   XY=             -0.0373   XZ=             -0.0000   YZ=             -0.0000

 Normal termination of Gaussian 16 at Thu Jul 14 13:28:23 2022.
