 Gaussian 16, Revision C.01,
 Gaussian 16:  ES64L-G16RevC.01  3-Jul-2019

 ----------------------------------------------
 #n M062X/6-311++G(d,p) TD SP pop=reg formcheck
 ----------------------------------------------

 -----
 SP_18
 -----
 Symbolic Z-matrix:
 Charge =  1 Multiplicity = 1

                         Standard orientation:
 ---------------------------------------------------------------------
 Center     Atomic      Atomic             Coordinates (Angstroms)
 Number     Number       Type             X           Y           Z
 ---------------------------------------------------------------------
      1          6           0        2.545063   -1.338016    0.000000
      2          6           0        3.751625   -0.649046    0.000000
      3          6           0        3.703400    0.723995    0.000000
      4          6           0        2.413558    1.421380    0.000000
      5          6           0       -2.524313    1.400504    0.000000
      6          6           0       -3.682209    0.708415    0.000000
      7          6           0       -3.668557   -0.698042    0.000000
      8          6           0       -2.452576   -1.389431    0.000000
      9          6           0        0.029603   -1.459075    0.000000
     10          6           0       -0.073701    1.432692    0.000000
     11          6           0        1.251239   -0.642558    0.000000
     12          6           0        1.217356    0.740994    0.000000
     13          6           0       -1.277572   -0.714560    0.000000
     14          6           0       -1.263527    0.723045    0.000000
     15          1           0        2.529844   -2.424118    0.000000
     16          1           0        4.692905   -1.178650    0.000000
     17          1           0        4.609265    1.319920    0.000000
     18          1           0        2.427032    2.507512    0.000000
     19          1           0       -0.076511    2.515946    0.000000
     20          1           0       -2.520175    2.484323    0.000000
     21          1           0       -4.630399    1.230885    0.000000
     22          1           0       -4.601696   -1.249423    0.000000
     23          1           0       -2.459942   -2.474527    0.000000
     24          1           0        0.106583   -2.146832    0.864324
     25          1           0        0.106767   -2.146830   -0.864324
 ---------------------------------------------------------------------

 SCF Done:  E(RM062X) =  -539.744587619     A.U. after   16 cycles

 Excitation energies and oscillator strengths:

 Excited State   1:      Singlet-A      2.5250 eV  491.03 nm  f=0.0158  <S**2>=0.000
      47 -> 48         0.70330
 This state for optimization and/or second-order correction.
 Total Energy, E(TD-HF/TD-DFT) =  -539.651796287
 Copying the excited state density for this state as the 1-particle RhoCI density.

 Excited State   2:      Singlet-A      3.4530 eV  359.06 nm  f=0.3786  <S**2>=0.000
      45 -> 48         0.26447
      46 -> 48         0.64490

 Excited State   3:      Singlet-A      3.5478 eV  349.46 nm  f=0.1788  <S**2>=0.000
      45 -> 48         0.64987
      46 -> 48        -0.26426

 The electronic state is 1-A.
 Alpha  occ. eigenvalues --  -10.77565 -10.74103 -10.73111 -10.72764 -10.72534
 Alpha  occ. eigenvalues --  -10.72101 -10.71799 -10.71092 -10.70686 -10.70421
 Alpha  occ. eigenvalues --  -10.70126 -10.69756 -10.69611 -10.69320  -1.16429
 Alpha  occ. eigenvalues --   -1.12279  -1.06747  -1.05837  -1.01130  -1.00481
 Alpha  occ. eigenvalues --   -0.95301  -0.90896  -0.86336  -0.85719  -0.83696
 Alpha  occ. eigenvalues --   -0.78171  -0.76104  -0.74170  -0.69986  -0.69204
 Alpha  occ. eigenvalues --   -0.68087  -0.67977  -0.67827  -0.65554  -0.64125
 Alpha  occ. eigenvalues --   -0.62401  -0.61360  -0.60600  -0.59334  -0.58920
 Alpha  occ. eigenvalues --   -0.56765  -0.55524  -0.53955  -0.52334  -0.47820
 Alpha  occ. eigenvalues --   -0.46089  -0.43199
 Alpha virt. eigenvalues --   -0.26162  -0.14755  -0.14036  -0.12795  -0.11194
 Alpha virt. eigenvalues --   -0.10098  -0.09292  -0.07938  -0.07901  -0.07500
 Alpha virt. eigenvalues --   -0.07213  -0.07134  -0.05666  -0.05574  -0.05392

 Mulliken charges:
               1
     1  C    0.112286
     2  C   -0.410103
     3  C   -0.452214
     4  C   -0.032291
     5  C    0.039066
     6  C   -0.427081
     7  C   -0.394975
     8  C    0.062436
     9  C   -0.354931
    10  C    0.071911
    11  C   -0.589098
    12  C    0.675161
    13  C   -0.637219
    14  C    0.709975
    15  H    0.236080
    16  H    0.249623
    17  H    0.245293
    18  H    0.219155
    19  H    0.190008
    20  H    0.227468
    21  H    0.253766
    22  H    0.264953
    23  H    0.241333
    24  H    0.249702
    25  H    0.249696
 Sum of Mulliken charges =   1.00000

 Dipole moment (field-independent basis, Debye):
    X=             -1.6114    Y=              0.1387    Z=              0.0000  Tot=              1.6173
 Quadrupole moment (field-independent basis, Debye-Ang):
   XX=            -30.6010   YY=            -56.2238   ZZ=            -84.2482
   XY=             -0.1274   XZ=             -0.0002   YZ=             -0.0000

 Normal termination of Gaussian 16 at Thu Jul 14 15:36:59 2022.
