 Gaussian 16, Revision C.01,
 Gaussian 16:  ES64L-G16RevC.01  3-Jul-2019

 ----------------------------------------------
 #n M062X/6-311++G(d,p) TD SP pop=reg formcheck
 ----------------------------------------------

 ----
 SP_0
 ----
 Symbolic Z-matrix:
 Charge =  1 Multiplicity = 1

                         Standard orientation:
 ---------------------------------------------------------------------
 Center     Atomic      Atomic             Coordinates (Angstroms)
 Number     Number       Type             X           Y           Z
 ---------------------------------------------------------------------
      1          6           0        0.000000    2.498490    1.364130
      2          6           0        0.000000    3.709960    0.673570
      3          6           0        0.000000    3.692500   -0.715780
      4          6           0        0.000000    2.468910   -1.411260
      5          6           0       -0.000000   -2.468910   -1.411260
      6          6           0       -0.000000   -3.692500   -0.715780
      7          6           0       -0.000000   -3.709960    0.673570
      8          6           0       -0.000000   -2.498490    1.364130
      9          6           0       -0.000000   -0.000000    1.458010
     10          6           0        0.000000    0.000000   -1.433200
     11          6           0        0.000000    1.264620    0.678660
     12          6           0        0.000000    1.240560   -0.732130
     13          6           0       -0.000000   -1.264620    0.678660
     14          6           0       -0.000000   -1.240560   -0.732130
     15          1           0        0.000000    2.495020    2.449460
     16          1           0        0.000000    4.647140    1.214260
     17          1           0        0.000000    4.619860   -1.275260
     18          1           0        0.000000    2.473590   -2.495900
     19          1           0        0.000000    0.000000   -2.516240
     20          1           0       -0.000000   -2.473590   -2.495900
     21          1           0       -0.000000   -4.619860   -1.275260
     22          1           0       -0.000000   -4.647140    1.214260
     23          1           0       -0.000000   -2.495020    2.449460
     24          1           0       -0.863770    0.000000    2.148010
     25          1           0        0.863770   -0.000000    2.148010
 ---------------------------------------------------------------------

 SCF Done:  E(RM062X) =  -539.759012519     A.U. after   15 cycles

 Excitation energies and oscillator strengths:

 Excited State   1:      Singlet-A1     2.8105 eV  441.14 nm  f=0.0284  <S**2>=0.000
      47 -> 48         0.70424
 This state for optimization and/or second-order correction.
 Total Energy, E(TD-HF/TD-DFT) =  -539.655726844
 Copying the excited state density for this state as the 1-particle RhoCI density.

 Excited State   2:      Singlet-B2     3.2419 eV  382.44 nm  f=0.0024  <S**2>=0.000
      45 -> 48         0.62124
      46 -> 48        -0.32649

 Excited State   3:      Singlet-B2     3.4679 eV  357.52 nm  f=0.5573  <S**2>=0.000
      45 -> 48         0.32837
      46 -> 48         0.61698

 The electronic state is 1-A1.
 Alpha  occ. eigenvalues --  -10.77776 -10.73347 -10.73346 -10.72556 -10.72555
 Alpha  occ. eigenvalues --  -10.71474 -10.71474 -10.71105 -10.71105 -10.71070
 Alpha  occ. eigenvalues --  -10.70082 -10.70082 -10.69738 -10.69738  -1.16222
 Alpha  occ. eigenvalues --   -1.12261  -1.06767  -1.05570  -1.01179  -1.00054
 Alpha  occ. eigenvalues --   -0.95679  -0.90941  -0.86287  -0.85786  -0.83735
 Alpha  occ. eigenvalues --   -0.78334  -0.75857  -0.74292  -0.69462  -0.69200
 Alpha  occ. eigenvalues --   -0.68421  -0.68101  -0.68002  -0.64658  -0.64223
 Alpha  occ. eigenvalues --   -0.62967  -0.61785  -0.59914  -0.59537  -0.59051
 Alpha  occ. eigenvalues --   -0.56871  -0.55198  -0.54792  -0.52330  -0.46552
 Alpha  occ. eigenvalues --   -0.45990  -0.44462
 Alpha virt. eigenvalues --   -0.26104  -0.14708  -0.14148  -0.12843  -0.11167
 Alpha virt. eigenvalues --   -0.10084  -0.09229  -0.08017  -0.07984  -0.07480
 Alpha virt. eigenvalues --   -0.07197  -0.07161  -0.05656  -0.05592  -0.05356

 Mulliken charges:
               1
     1  C    0.087963
     2  C   -0.403594
     3  C   -0.438533
     4  C    0.008205
     5  C    0.008205
     6  C   -0.438533
     7  C   -0.403594
     8  C    0.087963
     9  C   -0.339388
    10  C    0.084621
    11  C   -0.629923
    12  C    0.690071
    13  C   -0.629923
    14  C    0.690071
    15  H    0.238358
    16  H    0.257079
    17  H    0.249693
    18  H    0.222970
    19  H    0.191506
    20  H    0.222970
    21  H    0.249693
    22  H    0.257079
    23  H    0.238358
    24  H    0.249341
    25  H    0.249341
 Sum of Mulliken charges =   1.00000

 Dipole moment (field-independent basis, Debye):
    X=             -0.0000    Y=              0.0000    Z=             -0.1988  Tot=              0.1988
 Quadrupole moment (field-independent basis, Debye-Ang):
   XX=            -84.2782   YY=            -30.8891   ZZ=            -56.1767
   XY=              0.0000   XZ=             -0.0000   YZ=              0.0000

 Normal termination of Gaussian 16 at Thu Jul 14 12:10:11 2022.
