 Gaussian 16, Revision C.01,
 Gaussian 16:  ES64L-G16RevC.01  3-Jul-2019

 ----------------------------------------------
 #n M062X/6-311++G(d,p) TD SP pop=reg formcheck
 ----------------------------------------------

 -----
 SP_14
 -----
 Symbolic Z-matrix:
 Charge =  1 Multiplicity = 1

                         Standard orientation:
 ---------------------------------------------------------------------
 Center     Atomic      Atomic             Coordinates (Angstroms)
 Number     Number       Type             X           Y           Z
 ---------------------------------------------------------------------
      1          6           0        2.534738   -1.343888    0.000000
      2          6           0        3.742376   -0.654561    0.000000
      3          6           0        3.700957    0.722146    0.000000
      4          6           0        2.425853    1.419220    0.000000
      5          6           0       -2.511998    1.402979    0.000000
      6          6           0       -3.684475    0.710023    0.000000
      7          6           0       -3.677767   -0.692675    0.000000
      8          6           0       -2.462800   -1.383880    0.000000
      9          6           0        0.023024   -1.458878    0.000000
     10          6           0       -0.057325    1.432924    0.000000
     11          6           0        1.254266   -0.650549    0.000000
     12          6           0        1.222516    0.739061    0.000000
     13          6           0       -1.274746   -0.706553    0.000000
     14          6           0       -1.258429    0.725098    0.000000
     15          1           0        2.522129   -2.429787    0.000000
     16          1           0        4.682757   -1.186631    0.000000
     17          1           0        4.611655    1.310006    0.000000
     18          1           0        2.437374    2.504994    0.000000
     19          1           0       -0.059511    2.516126    0.000000
     20          1           0       -2.509822    2.486954    0.000000
     21          1           0       -4.628094    1.240749    0.000000
     22          1           0       -4.611814   -1.241683    0.000000
     23          1           0       -2.467757   -2.468999    0.000000
     24          1           0        0.082901   -2.147265    0.864201
     25          1           0        0.083045   -2.147264   -0.864201
 ---------------------------------------------------------------------

 SCF Done:  E(RM062X) =  -539.750312725     A.U. after   16 cycles

 Excitation energies and oscillator strengths:

 Excited State   1:      Singlet-A      2.6130 eV  474.50 nm  f=0.0180  <S**2>=0.000
      47 -> 48         0.70337
 This state for optimization and/or second-order correction.
 Total Energy, E(TD-HF/TD-DFT) =  -539.654287952
 Copying the excited state density for this state as the 1-particle RhoCI density.

 Excited State   2:      Singlet-A      3.4163 eV  362.92 nm  f=0.1349  <S**2>=0.000
      45 -> 48         0.52868
      46 -> 48         0.45768

 Excited State   3:      Singlet-A      3.4938 eV  354.87 nm  f=0.4259  <S**2>=0.000
      45 -> 48        -0.46185
      46 -> 48         0.52592

 The electronic state is 1-A.
 Alpha  occ. eigenvalues --  -10.77649 -10.73946 -10.73009 -10.72717 -10.72385
 Alpha  occ. eigenvalues --  -10.71981 -10.71981 -10.71084 -10.70870 -10.70349
 Alpha  occ. eigenvalues --  -10.70047 -10.69944 -10.69805 -10.69415  -1.16347
 Alpha  occ. eigenvalues --   -1.12271  -1.06752  -1.05729  -1.01148  -1.00329
 Alpha  occ. eigenvalues --   -0.95432  -0.90916  -0.86318  -0.85744  -0.83710
 Alpha  occ. eigenvalues --   -0.78233  -0.76013  -0.74208  -0.69830  -0.69180
 Alpha  occ. eigenvalues --   -0.68205  -0.67988  -0.67915  -0.65286  -0.64148
 Alpha  occ. eigenvalues --   -0.62547  -0.61518  -0.60415  -0.59247  -0.59079
 Alpha  occ. eigenvalues --   -0.56804  -0.55460  -0.54211  -0.52332  -0.47413
 Alpha  occ. eigenvalues --   -0.46068  -0.43586
 Alpha virt. eigenvalues --   -0.26140  -0.14738  -0.14079  -0.12815  -0.11183
 Alpha virt. eigenvalues --   -0.10093  -0.09268  -0.07955  -0.07945  -0.07492
 Alpha virt. eigenvalues --   -0.07207  -0.07146  -0.05663  -0.05581  -0.05379

 Mulliken charges:
               1
     1  C    0.107232
     2  C   -0.409073
     3  C   -0.448937
     4  C   -0.023407
     5  C    0.033579
     6  C   -0.429593
     7  C   -0.396939
     8  C    0.067943
     9  C   -0.349425
    10  C    0.076752
    11  C   -0.602788
    12  C    0.677531
    13  C   -0.636730
    14  C    0.707052
    15  H    0.236496
    16  H    0.251217
    17  H    0.246272
    18  H    0.219888
    19  H    0.190603
    20  H    0.226496
    21  H    0.252907
    22  H    0.263196
    23  H    0.240681
    24  H    0.249525
    25  H    0.249521
 Sum of Mulliken charges =   1.00000

 Dipole moment (field-independent basis, Debye):
    X=             -1.2595    Y=              0.1624    Z=              0.0000  Tot=              1.2699
 Quadrupole moment (field-independent basis, Debye-Ang):
   XX=            -30.7135   YY=            -56.2056   ZZ=            -84.2604
   XY=             -0.1013   XZ=             -0.0001   YZ=             -0.0000

 Normal termination of Gaussian 16 at Thu Jul 14 14:56:35 2022.
