 Gaussian 16, Revision C.01,
 Gaussian 16:  ES64L-G16RevC.01  3-Jul-2019

 ----------------------------------------------
 #n M062X/cc-pvtz TD EmpiricalDispersion=GD3 SP
 ----------------------------------------------

 -----
 SP_-3
 -----
 Symbolic Z-matrix:
 Charge =  1 Multiplicity = 1

                         Standard orientation:
 ---------------------------------------------------------------------
 Center     Atomic      Atomic             Coordinates (Angstroms)
 Number     Number       Type             X           Y           Z
 ---------------------------------------------------------------------
      1          6           0        2.486964   -1.348016    0.002406
      2          6           0        3.698593   -0.687706   -0.015851
      3          6           0        3.686879    0.688590    0.024641
      4          6           0        2.469272    1.416290   -0.009248
      5          6           0       -2.457237    1.401361   -0.009872
      6          6           0       -3.680777    0.738056    0.026289
      7          6           0       -3.704339   -0.656078   -0.014846
      8          6           0       -2.498596   -1.374685    0.001358
      9          6           0       -0.006214   -1.456015    0.046509
     10          6           0        0.006111    1.431166   -0.029770
     11          6           0        1.259245   -0.670828   -0.000278
     12          6           0        1.240652    0.735421   -0.012743
     13          6           0       -1.265034   -0.684028   -0.000798
     14          6           0       -1.234403    0.728007   -0.013054
     15          1           0        2.477811   -2.412606   -0.032880
     16          1           0        4.631694   -1.202449   -0.079377
     17          1           0        4.614773    1.268343    0.087536
     18          1           0        2.478353    2.534146    0.027954
     19          1           0        0.010732    2.511665    0.006088
     20          1           0       -2.457063    2.447301    0.024743
     21          1           0       -4.603897    1.271752    0.087494
     22          1           0       -4.642052   -1.216793   -0.080057
     23          1           0       -2.498703   -2.475291   -0.035223
     24          1           0       -0.003189   -2.178559    0.871672
     25          1           0       -0.015159   -2.116717   -0.846415
 ---------------------------------------------------------------------

 SCF Done:  E(RM062X) =  -539.809247508     A.U. after   14 cycles

 Excitation energies and oscillator strengths:

 Excited State   1:      Singlet-A      2.8121 eV  440.90 nm  f=0.0276  <S**2>=0.000
      47 -> 48         0.70412
 This state for optimization and/or second-order correction.
 Total Energy, E(TD-HF/TD-DFT) =  -539.705906466
 Copying the excited state density for this state as the 1-particle RhoCI density.

 Excited State   2:      Singlet-A      3.2563 eV  380.75 nm  f=0.0057  <S**2>=0.000
      45 -> 48         0.60285
      46 -> 48         0.35846

 Excited State   3:      Singlet-A      3.4746 eV  356.83 nm  f=0.5410  <S**2>=0.000
      45 -> 48        -0.36045
      46 -> 48         0.59846

 The electronic state is 1-A.
 Alpha  occ. eigenvalues --  -10.77531 -10.73253 -10.73041 -10.72325 -10.72249
 Alpha  occ. eigenvalues --  -10.71775 -10.71282 -10.70880 -10.70714 -10.70580
 Alpha  occ. eigenvalues --  -10.70217 -10.69666 -10.69481 -10.69444  -1.16212
 Alpha  occ. eigenvalues --   -1.12267  -1.06769  -1.05563  -1.01128  -1.00009
 Alpha  occ. eigenvalues --   -0.95601  -0.90875  -0.86215  -0.85666  -0.83659
 Alpha  occ. eigenvalues --   -0.78213  -0.75750  -0.74191  -0.69445  -0.69114
 Alpha  occ. eigenvalues --   -0.68217  -0.67992  -0.67914  -0.64493  -0.64028
 Alpha  occ. eigenvalues --   -0.62822  -0.61663  -0.59984  -0.59661  -0.58735
 Alpha  occ. eigenvalues --   -0.56673  -0.55020  -0.54499  -0.52351  -0.46562
 Alpha  occ. eigenvalues --   -0.45941  -0.44402
 Alpha virt. eigenvalues --   -0.25962  -0.14418  -0.13996  -0.12513  -0.06960
 Alpha virt. eigenvalues --   -0.05479  -0.05379  -0.04073  -0.02703  -0.01612
 Alpha virt. eigenvalues --   -0.00277   0.00352   0.00571   0.01924   0.02296

 Mulliken charges:
               1
     1  C   -0.100421
     2  C   -0.027412
     3  C   -0.118790
     4  C   -0.071899
     5  C   -0.060641
     6  C   -0.119137
     7  C   -0.035575
     8  C   -0.100626
     9  C   -0.309368
    10  C   -0.062117
    11  C    0.093483
    12  C    0.064602
    13  C    0.107258
    14  C    0.048143
    15  H    0.137463
    16  H    0.149987
    17  H    0.141419
    18  H    0.131120
    19  H    0.159864
    20  H    0.134598
    21  H    0.145727
    22  H    0.147861
    23  H    0.137771
    24  H    0.203096
    25  H    0.203594
 Sum of Mulliken charges =   1.00000

 Dipole moment (field-independent basis, Debye):
    X=             -0.0352    Y=              0.1931    Z=             -0.0095  Tot=              0.1965
 Quadrupole moment (field-independent basis, Debye-Ang):
   XX=            -30.9941   YY=            -56.3847   ZZ=            -83.3655
   XY=              0.2605   XZ=              0.0174   YZ=              0.5171

 Normal termination of Gaussian 16 at Mon Jul 25 20:16:52 2022.
