 Gaussian 16, Revision C.01,
 Gaussian 16:  ES64L-G16RevC.01  3-Jul-2019

 ----------------------------------------------
 #n M062X/cc-pvtz TD EmpiricalDispersion=GD3 SP
 ----------------------------------------------

 ----
 SP_3
 ----
 Symbolic Z-matrix:
 Charge =  1 Multiplicity = 1

                         Standard orientation:
 ---------------------------------------------------------------------
 Center     Atomic      Atomic             Coordinates (Angstroms)
 Number     Number       Type             X           Y           Z
 ---------------------------------------------------------------------
      1          6           0       -2.498598   -1.374681    0.001276
      2          6           0       -3.704339   -0.656072   -0.014968
      3          6           0       -3.680777    0.738062    0.026166
      4          6           0       -2.457234    1.401365   -0.009955
      5          6           0        2.469275    1.416286   -0.009166
      6          6           0        3.686879    0.688584    0.024763
      7          6           0        3.698593   -0.687712   -0.015728
      8          6           0        2.486962   -1.348020    0.002490
      9          6           0       -0.006218   -1.456015    0.046509
     10          6           0        0.006114    1.431166   -0.029771
     11          6           0       -1.265035   -0.684026   -0.000839
     12          6           0       -1.234401    0.728009   -0.013095
     13          6           0        1.259244   -0.670830   -0.000236
     14          6           0        1.240653    0.735419   -0.012703
     15          1           0       -2.498706   -2.475287   -0.035304
     16          1           0       -4.642051   -1.216786   -0.080211
     17          1           0       -4.603898    1.271759    0.087340
     18          1           0       -2.457060    2.447305    0.024660
     19          1           0        0.010735    2.511665    0.006087
     20          1           0        2.478356    2.534142    0.028035
     21          1           0        4.614772    1.268336    0.087688
     22          1           0        4.631695   -1.202456   -0.079222
     23          1           0        2.477808   -2.412610   -0.032796
     24          1           0       -0.003134   -2.116768   -0.846416
     25          1           0       -0.015221   -2.178507    0.871675
 ---------------------------------------------------------------------

 SCF Done:  E(RM062X) =  -539.809248677     A.U. after   14 cycles

 Excitation energies and oscillator strengths:

 Excited State   1:      Singlet-A      2.8120 eV  440.91 nm  f=0.0276  <S**2>=0.000
      47 -> 48         0.70412
 This state for optimization and/or second-order correction.
 Total Energy, E(TD-HF/TD-DFT) =  -539.705908220
 Copying the excited state density for this state as the 1-particle RhoCI density.

 Excited State   2:      Singlet-A      3.2563 eV  380.75 nm  f=0.0058  <S**2>=0.000
      45 -> 48         0.60286
      46 -> 48         0.35845

 Excited State   3:      Singlet-A      3.4746 eV  356.83 nm  f=0.5410  <S**2>=0.000
      45 -> 48        -0.36044
      46 -> 48         0.59846

 The electronic state is 1-A.
 Alpha  occ. eigenvalues --  -10.77531 -10.73248 -10.73046 -10.72324 -10.72250
 Alpha  occ. eigenvalues --  -10.71775 -10.71282 -10.70880 -10.70713 -10.70580
 Alpha  occ. eigenvalues --  -10.70216 -10.69666 -10.69481 -10.69444  -1.16212
 Alpha  occ. eigenvalues --   -1.12267  -1.06769  -1.05562  -1.01128  -1.00009
 Alpha  occ. eigenvalues --   -0.95601  -0.90875  -0.86215  -0.85666  -0.83659
 Alpha  occ. eigenvalues --   -0.78213  -0.75750  -0.74191  -0.69447  -0.69111
 Alpha  occ. eigenvalues --   -0.68221  -0.67972  -0.67929  -0.64493  -0.64028
 Alpha  occ. eigenvalues --   -0.62823  -0.61664  -0.59981  -0.59660  -0.58738
 Alpha  occ. eigenvalues --   -0.56673  -0.55020  -0.54499  -0.52351  -0.46562
 Alpha  occ. eigenvalues --   -0.45941  -0.44402
 Alpha virt. eigenvalues --   -0.25962  -0.14418  -0.13996  -0.12513  -0.06960
 Alpha virt. eigenvalues --   -0.05479  -0.05379  -0.04073  -0.02703  -0.01611
 Alpha virt. eigenvalues --   -0.00278   0.00353   0.00571   0.01924   0.02296

 Mulliken charges:
               1
     1  C   -0.100840
     2  C   -0.035572
     3  C   -0.119187
     4  C   -0.060581
     5  C   -0.071969
     6  C   -0.118725
     7  C   -0.027429
     8  C   -0.100175
     9  C   -0.309371
    10  C   -0.062099
    11  C    0.107547
    12  C    0.048017
    13  C    0.093174
    14  C    0.064721
    15  H    0.137831
    16  H    0.147876
    17  H    0.145727
    18  H    0.134592
    19  H    0.159866
    20  H    0.131126
    21  H    0.141420
    22  H    0.149968
    23  H    0.137400
    24  H    0.203587
    25  H    0.203097
 Sum of Mulliken charges =   1.00000

 Dipole moment (field-independent basis, Debye):
    X=             -0.0352    Y=              0.1931    Z=             -0.0095  Tot=              0.1965
 Quadrupole moment (field-independent basis, Debye-Ang):
   XX=            -30.9938   YY=            -56.3848   ZZ=            -83.3655
   XY=              0.2614   XZ=             -0.0018   YZ=              0.5174

 Normal termination of Gaussian 16 at Mon Jul 25 21:31:48 2022.
