 Gaussian 16, Revision C.01,
 Gaussian 16:  ES64L-G16RevC.01  3-Jul-2019

 ----------------------------------------------
 #n M062X/cc-pvtz TD EmpiricalDispersion=GD3 SP
 ----------------------------------------------

 ----
 SP_1
 ----
 Symbolic Z-matrix:
 Charge =  1 Multiplicity = 1

                         Standard orientation:
 ---------------------------------------------------------------------
 Center     Atomic      Atomic             Coordinates (Angstroms)
 Number     Number       Type             X           Y           Z
 ---------------------------------------------------------------------
      1          6           0       -2.494647   -1.364968    0.000556
      2          6           0       -3.702454   -0.666728   -0.005088
      3          6           0       -3.682875    0.721982    0.008555
      4          6           0       -2.461200    1.405232   -0.003246
      5          6           0        2.465212    1.410212   -0.003140
      6          6           0        3.684909    0.705484    0.008426
      7          6           0        3.700539   -0.677276   -0.005145
      8          6           0        2.490770   -1.356072    0.000709
      9          6           0       -0.002071   -1.453705    0.015517
     10          6           0        0.002037    1.429404   -0.009934
     11          6           0       -1.263069   -0.679263   -0.000215
     12          6           0       -1.236462    0.729651   -0.004331
     13          6           0        1.261140   -0.674860   -0.000139
     14          6           0        1.238544    0.732124   -0.004278
     15          1           0       -2.491599   -2.454107   -0.011497
     16          1           0       -4.638534   -1.213876   -0.026656
     17          1           0       -4.607491    1.272692    0.029148
     18          1           0       -2.463975    2.475672    0.008583
     19          1           0        0.003577    2.510438    0.002022
     20          1           0        2.471071    2.504638    0.008976
     21          1           0        4.611117    1.271557    0.029220
     22          1           0        4.635082   -1.209090   -0.026511
     23          1           0        2.484636   -2.433199   -0.011200
     24          1           0       -0.001050   -2.135720   -0.855319
     25          1           0       -0.005066   -2.156317    0.863758
 ---------------------------------------------------------------------

 SCF Done:  E(RM062X) =  -539.815098798     A.U. after   14 cycles

 Excitation energies and oscillator strengths:

 Excited State   1:      Singlet-A      2.8213 eV  439.46 nm  f=0.0276  <S**2>=0.000
      47 -> 48         0.70415
 This state for optimization and/or second-order correction.
 Total Energy, E(TD-HF/TD-DFT) =  -539.711418803
 Copying the excited state density for this state as the 1-particle RhoCI density.

 Excited State   2:      Singlet-A      3.2633 eV  379.93 nm  f=0.0037  <S**2>=0.000
      45 -> 48         0.61205
      46 -> 48        -0.34276

 Excited State   3:      Singlet-A      3.4842 eV  355.85 nm  f=0.5458  <S**2>=0.000
      45 -> 48         0.34474
      46 -> 48         0.60764

 The electronic state is 1-A.
 Alpha  occ. eigenvalues --  -10.77536 -10.73147 -10.73079 -10.72275 -10.72250
 Alpha  occ. eigenvalues --  -10.71413 -10.71058 -10.71034 -10.70844 -10.70800
 Alpha  occ. eigenvalues --  -10.69964 -10.69718 -10.69568 -10.69493  -1.16253
 Alpha  occ. eigenvalues --   -1.12286  -1.06777  -1.05574  -1.01156  -1.00032
 Alpha  occ. eigenvalues --   -0.95631  -0.90878  -0.86214  -0.85724  -0.83653
 Alpha  occ. eigenvalues --   -0.78236  -0.75780  -0.74198  -0.69362  -0.69081
 Alpha  occ. eigenvalues --   -0.68290  -0.68012  -0.67974  -0.64501  -0.64057
 Alpha  occ. eigenvalues --   -0.62819  -0.61661  -0.59951  -0.59665  -0.58877
 Alpha  occ. eigenvalues --   -0.56690  -0.54995  -0.54591  -0.52409  -0.46575
 Alpha  occ. eigenvalues --   -0.45992  -0.44436
 Alpha virt. eigenvalues --   -0.25961  -0.14403  -0.13962  -0.12490  -0.06863
 Alpha virt. eigenvalues --   -0.05507  -0.05365  -0.04073  -0.02679  -0.01622
 Alpha virt. eigenvalues --   -0.00214   0.00378   0.00576   0.01934   0.02304

 Mulliken charges:
               1
     1  C   -0.100093
     2  C   -0.031768
     3  C   -0.120307
     4  C   -0.060616
     5  C   -0.064679
     6  C   -0.120109
     7  C   -0.028942
     8  C   -0.100051
     9  C   -0.308944
    10  C   -0.066419
    11  C    0.105596
    12  C    0.052731
    13  C    0.100683
    14  C    0.058560
    15  H    0.137059
    16  H    0.147682
    17  H    0.143559
    18  H    0.131967
    19  H    0.159985
    20  H    0.130847
    21  H    0.142154
    22  H    0.148351
    23  H    0.136934
    24  H    0.203080
    25  H    0.202742
 Sum of Mulliken charges =   1.00000

 Dipole moment (field-independent basis, Debye):
    X=             -0.0116    Y=              0.1963    Z=             -0.0032  Tot=              0.1967
 Quadrupole moment (field-independent basis, Debye-Ang):
   XX=            -30.9591   YY=            -56.4072   ZZ=            -83.3710
   XY=              0.0870   XZ=             -0.0023   YZ=              0.1726

 Normal termination of Gaussian 16 at Mon Jul 25 21:05:53 2022.
