 Gaussian 16, Revision C.01,
 Gaussian 16:  ES64L-G16RevC.01  3-Jul-2019

 ----------------------------------------------
 #n M062X/cc-pvtz TD EmpiricalDispersion=GD3 SP
 ----------------------------------------------

 -----
 SP_-2
 -----
 Symbolic Z-matrix:
 Charge =  1 Multiplicity = 1

                         Standard orientation:
 ---------------------------------------------------------------------
 Center     Atomic      Atomic             Coordinates (Angstroms)
 Number     Number       Type             X           Y           Z
 ---------------------------------------------------------------------
      1          6           0        2.488859   -1.351937    0.001485
      2          6           0        3.699570   -0.682506   -0.010470
      3          6           0        3.685902    0.697086    0.016600
      4          6           0        2.467235    1.413115   -0.006252
      5          6           0       -2.459213    1.403157   -0.006511
      6          6           0       -3.681834    0.730072    0.017360
      7          6           0       -3.703400   -0.661416   -0.009996
      8          6           0       -2.496612   -1.369725    0.001037
      9          6           0       -0.004142   -1.454571    0.031023
     10          6           0        0.004073    1.430065   -0.019860
     11          6           0        1.260188   -0.672797   -0.000245
     12          6           0        1.239595    0.733670   -0.008541
     13          6           0       -1.264047   -0.681601   -0.000467
     14          6           0       -1.235430    0.728725   -0.008670
     15          1           0        2.481206   -2.422860   -0.022187
     16          1           0        4.633380   -1.205999   -0.053024
     17          1           0        4.612941    1.270211    0.058351
     18          1           0        2.474688    2.519329    0.018266
     19          1           0        0.007153    2.510898    0.004050
     20          1           0       -2.460497    2.461408    0.016857
     21          1           0       -4.605690    1.272480    0.058367
     22          1           0       -4.640285   -1.215570   -0.053293
     23          1           0       -2.495133   -2.464667   -0.023210
     24          1           0       -0.002118   -2.167238    0.867784
     25          1           0       -0.010111   -2.126014   -0.850922
 ---------------------------------------------------------------------

 SCF Done:  E(RM062X) =  -539.812906968     A.U. after   14 cycles

 Excitation energies and oscillator strengths:

 Excited State   1:      Singlet-A      2.8178 eV  440.00 nm  f=0.0276  <S**2>=0.000
      47 -> 48         0.70414
 This state for optimization and/or second-order correction.
 Total Energy, E(TD-HF/TD-DFT) =  -539.709354431
 Copying the excited state density for this state as the 1-particle RhoCI density.

 Excited State   2:      Singlet-A      3.2607 eV  380.24 nm  f=0.0044  <S**2>=0.000
      45 -> 48         0.60862
      46 -> 48        -0.34873

 Excited State   3:      Singlet-A      3.4806 eV  356.22 nm  f=0.5441  <S**2>=0.000
      45 -> 48         0.35071
      46 -> 48         0.60421

 The electronic state is 1-A.
 Alpha  occ. eigenvalues --  -10.77534 -10.73195 -10.73056 -10.72297 -10.72246
 Alpha  occ. eigenvalues --  -10.71593 -10.71156 -10.70885 -10.70858 -10.70688
 Alpha  occ. eigenvalues --  -10.70089 -10.69614 -10.69598 -10.69465  -1.16237
 Alpha  occ. eigenvalues --   -1.12279  -1.06774  -1.05570  -1.01145  -1.00023
 Alpha  occ. eigenvalues --   -0.95619  -0.90877  -0.86214  -0.85702  -0.83655
 Alpha  occ. eigenvalues --   -0.78227  -0.75769  -0.74196  -0.69395  -0.69092
 Alpha  occ. eigenvalues --   -0.68261  -0.68005  -0.67950  -0.64498  -0.64046
 Alpha  occ. eigenvalues --   -0.62821  -0.61661  -0.59966  -0.59663  -0.58821
 Alpha  occ. eigenvalues --   -0.56683  -0.55005  -0.54556  -0.52387  -0.46570
 Alpha  occ. eigenvalues --   -0.45973  -0.44423
 Alpha virt. eigenvalues --   -0.25962  -0.14409  -0.13975  -0.12498  -0.06900
 Alpha virt. eigenvalues --   -0.05496  -0.05370  -0.04073  -0.02688  -0.01618
 Alpha virt. eigenvalues --   -0.00238   0.00368   0.00574   0.01931   0.02301

 Mulliken charges:
               1
     1  C   -0.100221
     2  C   -0.028007
     3  C   -0.119557
     4  C   -0.067978
     5  C   -0.060127
     6  C   -0.119862
     7  C   -0.033589
     8  C   -0.100245
     9  C   -0.309134
    10  C   -0.064747
    11  C    0.097339
    12  C    0.061616
    13  C    0.106809
    14  C    0.050271
    15  H    0.137120
    16  H    0.149046
    17  H    0.141713
    18  H    0.130816
    19  H    0.159935
    20  H    0.133092
    21  H    0.144545
    22  H    0.147675
    23  H    0.137331
    24  H    0.202807
    25  H    0.203352
 Sum of Mulliken charges =   1.00000

 Dipole moment (field-independent basis, Debye):
    X=             -0.0233    Y=              0.1951    Z=             -0.0064  Tot=              0.1966
 Quadrupole moment (field-independent basis, Debye-Ang):
   XX=            -30.9722   YY=            -56.3987   ZZ=            -83.3690
   XY=              0.1737   XZ=              0.0099   YZ=              0.3450

 Normal termination of Gaussian 16 at Mon Jul 25 20:32:20 2022.
