 Gaussian 16, Revision C.01,
 Gaussian 16:  ES64L-G16RevC.01  3-Jul-2019

 ----------------------------------------------
 #n M062X/cc-pvtz TD EmpiricalDispersion=GD3 SP
 ----------------------------------------------

 -----
 SP_-4
 -----
 Symbolic Z-matrix:
 Charge =  1 Multiplicity = 1

                         Standard orientation:
 ---------------------------------------------------------------------
 Center     Atomic      Atomic             Coordinates (Angstroms)
 Number     Number       Type             X           Y           Z
 ---------------------------------------------------------------------
      1          6           0        2.485085   -1.344311    0.003442
      2          6           0        3.697609   -0.692876   -0.021329
      3          6           0        3.687840    0.679999    0.032507
      4          6           0        2.471323    1.419734   -0.012151
      5          6           0       -2.455271    1.399846   -0.013297
      6          6           0       -3.679703    0.745931    0.035382
      7          6           0       -3.705271   -0.650716   -0.019596
      8          6           0       -2.500599   -1.379844    0.001543
      9          6           0       -0.008289   -1.458035    0.061964
     10          6           0        0.008150    1.432706   -0.039657
     11          6           0        1.258311   -0.668955   -0.000254
     12          6           0        1.241716    0.737375   -0.016896
     13          6           0       -1.266031   -0.686542   -0.001196
     14          6           0       -1.233381    0.727498   -0.017466
     15          1           0        2.474448   -2.402443   -0.043307
     16          1           0        4.630025   -1.198442   -0.105611
     17          1           0        4.616612    1.265953    0.116713
     18          1           0        2.482066    2.549084    0.038015
     19          1           0        0.014312    2.512739    0.008143
     20          1           0       -2.453674    2.433357    0.032271
     21          1           0       -4.602112    1.270510    0.116572
     22          1           0       -4.643834   -1.217544   -0.106889
     23          1           0       -2.502310   -2.485972   -0.047508
     24          1           0       -0.004269   -2.190283    0.875416
     25          1           0       -0.020202   -2.107825   -0.841806
 ---------------------------------------------------------------------

 SCF Done:  E(RM062X) =  -539.804111951     A.U. after   14 cycles

 Excitation energies and oscillator strengths:

 Excited State   1:      Singlet-A      2.8040 eV  442.16 nm  f=0.0276  <S**2>=0.000
      47 -> 48         0.70409
 This state for optimization and/or second-order correction.
 Total Energy, E(TD-HF/TD-DFT) =  -539.701065249
 Copying the excited state density for this state as the 1-particle RhoCI density.

 Excited State   2:      Singlet-A      3.2500 eV  381.49 nm  f=0.0078  <S**2>=0.000
      45 -> 48         0.59468
      46 -> 48         0.37166

 Excited State   3:      Singlet-A      3.4664 eV  357.68 nm  f=0.5364  <S**2>=0.000
      45 -> 48        -0.37366
      46 -> 48         0.59030

 The electronic state is 1-A.
 Alpha  occ. eigenvalues --  -10.77527 -10.73320 -10.73034 -10.72359 -10.72258
 Alpha  occ. eigenvalues --  -10.71956 -10.71413 -10.70912 -10.70547 -10.70476
 Alpha  occ. eigenvalues --  -10.70346 -10.69723 -10.69430 -10.69366  -1.16176
 Alpha  occ. eigenvalues --   -1.12251  -1.06763  -1.05553  -1.01104  -0.99989
 Alpha  occ. eigenvalues --   -0.95575  -0.90871  -0.86215  -0.85616  -0.83664
 Alpha  occ. eigenvalues --   -0.78193  -0.75724  -0.74185  -0.69506  -0.69146
 Alpha  occ. eigenvalues --   -0.68161  -0.67970  -0.67867  -0.64486  -0.64002
 Alpha  occ. eigenvalues --   -0.62822  -0.61665  -0.60000  -0.59658  -0.58625
 Alpha  occ. eigenvalues --   -0.56657  -0.55038  -0.54425  -0.52300  -0.46551
 Alpha  occ. eigenvalues --   -0.45897  -0.44373
 Alpha virt. eigenvalues --   -0.25963  -0.14431  -0.14025  -0.12534  -0.07041
 Alpha virt. eigenvalues --   -0.05460  -0.05390  -0.04073  -0.02724  -0.01605
 Alpha virt. eigenvalues --   -0.00331   0.00331   0.00566   0.01914   0.02287

 Mulliken charges:
               1
     1  C   -0.100661
     2  C   -0.027148
     3  C   -0.117906
     4  C   -0.076238
     5  C   -0.062053
     6  C   -0.118250
     7  C   -0.037621
     8  C   -0.101279
     9  C   -0.309544
    10  C   -0.058734
    11  C    0.089278
    12  C    0.067371
    13  C    0.106966
    14  C    0.046333
    15  H    0.137974
    16  H    0.151174
    17  H    0.141241
    18  H    0.131747
    19  H    0.159787
    20  H    0.136492
    21  H    0.147105
    22  H    0.148206
    23  H    0.138383
    24  H    0.203636
    25  H    0.203742
 Sum of Mulliken charges =   1.00000

 Dipole moment (field-independent basis, Debye):
    X=             -0.0474    Y=              0.1901    Z=             -0.0125  Tot=              0.1964
 Quadrupole moment (field-independent basis, Debye-Ang):
   XX=            -31.0249   YY=            -56.3652   ZZ=            -83.3607
   XY=              0.3474   XZ=              0.0266   YZ=              0.6889

 Normal termination of Gaussian 16 at Mon Jul 25 20:01:14 2022.
