 Gaussian 16, Revision C.01,
 Gaussian 16:  ES64L-G16RevC.01  3-Jul-2019

 ----------------------------------------------
 #n M062X/cc-pvtz TD EmpiricalDispersion=GD3 SP
 ----------------------------------------------

 ----
 SP_5
 ----
 Symbolic Z-matrix:
 Charge =  1 Multiplicity = 1

                         Standard orientation:
 ---------------------------------------------------------------------
 Center     Atomic      Atomic             Coordinates (Angstroms)
 Number     Number       Type             X           Y           Z
 ---------------------------------------------------------------------
      1          6           0       -2.502627   -1.385188    0.001452
      2          6           0       -3.706197   -0.645314   -0.024449
      3          6           0       -3.678613    0.753710    0.044432
      4          6           0       -2.453308    1.398624   -0.016919
      5          6           0        2.473395    1.423434   -0.014822
      6          6           0        3.688786    0.671299    0.040400
      7          6           0        3.696615   -0.698031   -0.026696
      8          6           0        2.483216   -1.340834    0.004728
      9          6           0       -0.010378   -1.460631    0.077379
     10          6           0        0.010202    1.434685   -0.049514
     11          6           0       -1.267040   -0.689136   -0.001731
     12          6           0       -1.232360    0.727205   -0.021972
     13          6           0        1.257381   -0.667184   -0.000103
     14          6           0        1.242791    0.739526   -0.020927
     15          1           0       -2.505961   -2.496695   -0.060201
     16          1           0       -4.645631   -1.217801   -0.134035
     17          1           0       -4.600338    1.268775    0.145334
     18          1           0       -2.450320    2.419594    0.039304
     19          1           0        0.017906    2.514118    0.010215
     20          1           0        2.485837    2.564125    0.048583
     21          1           0        4.618456    1.263021    0.146128
     22          1           0        4.628375   -1.194001   -0.131461
     23          1           0        2.471111   -2.392385   -0.053330
     24          1           0       -0.005204   -2.099484   -0.837106
     25          1           0       -0.025416   -2.202263    0.879016
 ---------------------------------------------------------------------

 SCF Done:  E(RM062X) =  -539.797495629     A.U. after   14 cycles

 Excitation energies and oscillator strengths:

 Excited State   1:      Singlet-A      2.7937 eV  443.79 nm  f=0.0275  <S**2>=0.000
      47 -> 48         0.70406
 This state for optimization and/or second-order correction.
 Total Energy, E(TD-HF/TD-DFT) =  -539.694827380
 Copying the excited state density for this state as the 1-particle RhoCI density.

 Excited State   2:      Singlet-A      3.2418 eV  382.45 nm  f=0.0111  <S**2>=0.000
      45 -> 48         0.58399
      46 -> 48         0.38799

 Excited State   3:      Singlet-A      3.4559 eV  358.76 nm  f=0.5297  <S**2>=0.000
      45 -> 48        -0.39000
      46 -> 48         0.57965

 The electronic state is 1-A.
 Alpha  occ. eigenvalues --  -10.77522 -10.73382 -10.73047 -10.72397 -10.72279
 Alpha  occ. eigenvalues --  -10.72136 -10.71546 -10.70951 -10.70476 -10.70382
 Alpha  occ. eigenvalues --  -10.70377 -10.69786 -10.69423 -10.69254  -1.16131
 Alpha  occ. eigenvalues --   -1.12231  -1.06755  -1.05539  -1.01074  -0.99965
 Alpha  occ. eigenvalues --   -0.95541  -0.90867  -0.86214  -0.85553  -0.83671
 Alpha  occ. eigenvalues --   -0.78167  -0.75691  -0.74177  -0.69579  -0.69182
 Alpha  occ. eigenvalues --   -0.68110  -0.67886  -0.67848  -0.64476  -0.63970
 Alpha  occ. eigenvalues --   -0.62827  -0.61674  -0.59993  -0.59649  -0.58504
 Alpha  occ. eigenvalues --   -0.56638  -0.55057  -0.54333  -0.52236  -0.46537
 Alpha  occ. eigenvalues --   -0.45840  -0.44336
 Alpha virt. eigenvalues --   -0.25965  -0.14448  -0.14062  -0.12560  -0.07141
 Alpha virt. eigenvalues --   -0.05442  -0.05403  -0.04073  -0.02749  -0.01597
 Alpha virt. eigenvalues --   -0.00404   0.00306   0.00557   0.01900   0.02273

 Mulliken charges:
               1
     1  C   -0.102755
     2  C   -0.039640
     3  C   -0.117450
     4  C   -0.064097
     5  C   -0.080994
     6  C   -0.116827
     7  C   -0.027228
     8  C   -0.100296
     9  C   -0.309570
    10  C   -0.054761
    11  C    0.106691
    12  C    0.044449
    13  C    0.084088
    14  C    0.070109
    15  H    0.139324
    16  H    0.148706
    17  H    0.148667
    18  H    0.138795
    19  H    0.159728
    20  H    0.132706
    21  H    0.141154
    22  H    0.152546
    23  H    0.138504
    24  H    0.203714
    25  H    0.204438
 Sum of Mulliken charges =   1.00000

 Dipole moment (field-independent basis, Debye):
    X=             -0.0599    Y=              0.1868    Z=             -0.0154  Tot=              0.1967
 Quadrupole moment (field-independent basis, Debye-Ang):
   XX=            -31.0633   YY=            -56.3405   ZZ=            -83.3546
   XY=              0.4372   XZ=              0.0053   YZ=              0.8608

 Normal termination of Gaussian 16 at Mon Jul 25 21:56:54 2022.
