 Gaussian 16, Revision C.01,
 Gaussian 16:  ES64L-G16RevC.01  3-Jul-2019

 ----------------------------------------------
 #n M062X/cc-pvtz TD EmpiricalDispersion=GD3 SP
 ----------------------------------------------

 -----
 SP_-5
 -----
 Symbolic Z-matrix:
 Charge =  1 Multiplicity = 1

                         Standard orientation:
 ---------------------------------------------------------------------
 Center     Atomic      Atomic             Coordinates (Angstroms)
 Number     Number       Type             X           Y           Z
 ---------------------------------------------------------------------
      1          6           0        2.483222   -1.340823    0.004589
      2          6           0        3.696617   -0.698015   -0.026902
      3          6           0        3.688786    0.671315    0.040197
      4          6           0        2.473388    1.423445   -0.014956
      5          6           0       -2.453315    1.398614   -0.016780
      6          6           0       -3.678614    0.753695    0.044637
      7          6           0       -3.706195   -0.645330   -0.024246
      8          6           0       -2.502621   -1.385198    0.001588
      9          6           0       -0.010367   -1.460631    0.077377
     10          6           0        0.010193    1.434686   -0.049512
     11          6           0        1.257384   -0.667178   -0.000173
     12          6           0        1.242787    0.739531   -0.020995
     13          6           0       -1.267037   -0.689142   -0.001662
     14          6           0       -1.232364    0.727199   -0.021903
     15          1           0        2.471118   -2.392374   -0.053470
     16          1           0        4.628373   -1.193981   -0.131719
     17          1           0        4.618458    1.263040    0.145875
     18          1           0        2.485829    2.564136    0.048450
     19          1           0        0.017896    2.514118    0.010219
     20          1           0       -2.450329    2.419584    0.039444
     21          1           0       -4.600335    1.268755    0.145591
     22          1           0       -4.645633   -1.217820   -0.133780
     23          1           0       -2.505953   -2.496706   -0.060066
     24          1           0       -0.005359   -2.202407    0.879007
     25          1           0       -0.025241   -2.099340   -0.837102
 ---------------------------------------------------------------------

 SCF Done:  E(RM062X) =  -539.797490175     A.U. after   14 cycles

 Excitation energies and oscillator strengths:

 Excited State   1:      Singlet-A      2.7938 eV  443.78 nm  f=0.0275  <S**2>=0.000
      47 -> 48         0.70405
 This state for optimization and/or second-order correction.
 Total Energy, E(TD-HF/TD-DFT) =  -539.694819347
 Copying the excited state density for this state as the 1-particle RhoCI density.

 Excited State   2:      Singlet-A      3.2418 eV  382.46 nm  f=0.0110  <S**2>=0.000
      45 -> 48         0.58401
      46 -> 48         0.38797

 Excited State   3:      Singlet-A      3.4560 eV  358.75 nm  f=0.5298  <S**2>=0.000
      45 -> 48        -0.38998
      46 -> 48         0.57966

 The electronic state is 1-A.
 Alpha  occ. eigenvalues --  -10.77521 -10.73396 -10.73034 -10.72399 -10.72277
 Alpha  occ. eigenvalues --  -10.72135 -10.71546 -10.70952 -10.70477 -10.70383
 Alpha  occ. eigenvalues --  -10.70377 -10.69786 -10.69422 -10.69253  -1.16131
 Alpha  occ. eigenvalues --   -1.12231  -1.06755  -1.05540  -1.01074  -0.99964
 Alpha  occ. eigenvalues --   -0.95541  -0.90867  -0.86215  -0.85553  -0.83671
 Alpha  occ. eigenvalues --   -0.78167  -0.75691  -0.74176  -0.69574  -0.69189
 Alpha  occ. eigenvalues --   -0.68097  -0.67938  -0.67811  -0.64477  -0.63970
 Alpha  occ. eigenvalues --   -0.62821  -0.61670  -0.60006  -0.59653  -0.58495
 Alpha  occ. eigenvalues --   -0.56638  -0.55057  -0.54333  -0.52236  -0.46536
 Alpha  occ. eigenvalues --   -0.45840  -0.44335
 Alpha virt. eigenvalues --   -0.25965  -0.14448  -0.14063  -0.12560  -0.07140
 Alpha virt. eigenvalues --   -0.05442  -0.05404  -0.04072  -0.02749  -0.01599
 Alpha virt. eigenvalues --   -0.00399   0.00303   0.00558   0.01899   0.02273

 Mulliken charges:
               1
     1  C   -0.100933
     2  C   -0.027195
     3  C   -0.116995
     4  C   -0.080820
     5  C   -0.064228
     6  C   -0.117346
     7  C   -0.039621
     8  C   -0.102252
     9  C   -0.309547
    10  C   -0.054836
    11  C    0.084838
    12  C    0.069819
    13  C    0.106021
    14  C    0.044773
    15  H    0.138662
    16  H    0.152597
    17  H    0.141151
    18  H    0.132689
    19  H    0.159723
    20  H    0.138807
    21  H    0.148668
    22  H    0.148673
    23  H    0.139176
    24  H    0.204435
    25  H    0.203742
 Sum of Mulliken charges =   1.00000

 Dipole moment (field-independent basis, Debye):
    X=             -0.0600    Y=              0.1864    Z=             -0.0153  Tot=              0.1964
 Quadrupole moment (field-independent basis, Debye-Ang):
   XX=            -31.0645   YY=            -56.3402   ZZ=            -83.3546
   XY=              0.4346   XZ=              0.0373   YZ=              0.8602

 Normal termination of Gaussian 16 at Mon Jul 25 19:44:49 2022.
