 Gaussian 16, Revision C.01,
 Gaussian 16:  ES64L-G16RevC.01  3-Jul-2019

 ----------------------------------------------
 #n M062X/cc-pvtz TD EmpiricalDispersion=GD3 SP
 ----------------------------------------------

 ----
 SP_4
 ----
 Symbolic Z-matrix:
 Charge =  1 Multiplicity = 1

                         Standard orientation:
 ---------------------------------------------------------------------
 Center     Atomic      Atomic             Coordinates (Angstroms)
 Number     Number       Type             X           Y           Z
 ---------------------------------------------------------------------
      1          6           0       -2.500602   -1.379837    0.001434
      2          6           0       -3.705272   -0.650706   -0.019759
      3          6           0       -3.679703    0.745941    0.035218
      4          6           0       -2.455266    1.399853   -0.013407
      5          6           0        2.471327    1.419727   -0.012043
      6          6           0        3.687841    0.679989    0.032670
      7          6           0        3.697608   -0.692886   -0.021164
      8          6           0        2.485081   -1.344317    0.003554
      9          6           0       -0.008296   -1.458035    0.061965
     10          6           0        0.008156    1.432706   -0.039658
     11          6           0       -1.266033   -0.686539   -0.001251
     12          6           0       -1.233378    0.727502   -0.017522
     13          6           0        1.258309   -0.668958   -0.000197
     14          6           0        1.241718    0.737372   -0.016842
     15          1           0       -2.502314   -2.485965   -0.047616
     16          1           0       -4.643833   -1.217531   -0.107093
     17          1           0       -4.602113    1.270523    0.116367
     18          1           0       -2.453669    2.433364    0.032160
     19          1           0        0.014319    2.512739    0.008141
     20          1           0        2.482072    2.549078    0.038122
     21          1           0        4.616610    1.265941    0.116916
     22          1           0        4.630027   -1.198455   -0.105404
     23          1           0        2.474443   -2.402449   -0.043195
     24          1           0       -0.004170   -2.107917   -0.841808
     25          1           0       -0.020313   -2.190191    0.875421
 ---------------------------------------------------------------------

 SCF Done:  E(RM062X) =  -539.804114732     A.U. after   14 cycles

 Excitation energies and oscillator strengths:

 Excited State   1:      Singlet-A      2.8040 eV  442.17 nm  f=0.0276  <S**2>=0.000
      47 -> 48         0.70409
 This state for optimization and/or second-order correction.
 Total Energy, E(TD-HF/TD-DFT) =  -539.701069389
 Copying the excited state density for this state as the 1-particle RhoCI density.

 Excited State   2:      Singlet-A      3.2501 eV  381.48 nm  f=0.0079  <S**2>=0.000
      45 -> 48         0.59468
      46 -> 48         0.37166

 Excited State   3:      Singlet-A      3.4663 eV  357.68 nm  f=0.5364  <S**2>=0.000
      45 -> 48        -0.37365
      46 -> 48         0.59030

 The electronic state is 1-A.
 Alpha  occ. eigenvalues --  -10.77527 -10.73311 -10.73042 -10.72357 -10.72260
 Alpha  occ. eigenvalues --  -10.71957 -10.71413 -10.70911 -10.70546 -10.70477
 Alpha  occ. eigenvalues --  -10.70345 -10.69723 -10.69430 -10.69366  -1.16176
 Alpha  occ. eigenvalues --   -1.12251  -1.06763  -1.05552  -1.01104  -0.99989
 Alpha  occ. eigenvalues --   -0.95575  -0.90871  -0.86215  -0.85616  -0.83664
 Alpha  occ. eigenvalues --   -0.78193  -0.75724  -0.74185  -0.69509  -0.69142
 Alpha  occ. eigenvalues --   -0.68169  -0.67935  -0.67893  -0.64486  -0.64002
 Alpha  occ. eigenvalues --   -0.62826  -0.61668  -0.59992  -0.59655  -0.58630
 Alpha  occ. eigenvalues --   -0.56657  -0.55038  -0.54425  -0.52300  -0.46551
 Alpha  occ. eigenvalues --   -0.45897  -0.44373
 Alpha virt. eigenvalues --   -0.25963  -0.14431  -0.14025  -0.12534  -0.07041
 Alpha virt. eigenvalues --   -0.05460  -0.05390  -0.04073  -0.02724  -0.01604
 Alpha virt. eigenvalues --   -0.00334   0.00333   0.00565   0.01914   0.02287

 Mulliken charges:
               1
     1  C   -0.101631
     2  C   -0.037625
     3  C   -0.118328
     4  C   -0.061957
     5  C   -0.076357
     6  C   -0.117793
     7  C   -0.027174
     8  C   -0.100236
     9  C   -0.309553
    10  C   -0.058693
    11  C    0.107439
    12  C    0.046116
    13  C    0.088759
    14  C    0.067570
    15  H    0.138484
    16  H    0.148229
    17  H    0.147104
    18  H    0.136483
    19  H    0.159790
    20  H    0.131758
    21  H    0.141243
    22  H    0.151141
    23  H    0.137867
    24  H    0.203726
    25  H    0.203638
 Sum of Mulliken charges =   1.00000

 Dipole moment (field-independent basis, Debye):
    X=             -0.0473    Y=              0.1903    Z=             -0.0125  Tot=              0.1965
 Quadrupole moment (field-independent basis, Debye-Ang):
   XX=            -31.0243   YY=            -56.3654   ZZ=            -83.3607
   XY=              0.3490   XZ=              0.0010   YZ=              0.6893

 Normal termination of Gaussian 16 at Mon Jul 25 21:44:37 2022.
