 Gaussian 16, Revision C.01,
 Gaussian 16:  ES64L-G16RevC.01  3-Jul-2019

 ----------------------------------------------
 #n M062X/cc-pvtz TD EmpiricalDispersion=GD3 SP
 ----------------------------------------------

 ----
 SP_2
 ----
 Symbolic Z-matrix:
 Charge =  1 Multiplicity = 1

                         Standard orientation:
 ---------------------------------------------------------------------
 Center     Atomic      Atomic             Coordinates (Angstroms)
 Number     Number       Type             X           Y           Z
 ---------------------------------------------------------------------
      1          6           0       -2.496613   -1.369724    0.000982
      2          6           0       -3.703400   -0.661413   -0.010078
      3          6           0       -3.681834    0.730075    0.017278
      4          6           0       -2.459212    1.403158   -0.006566
      5          6           0        2.467236    1.413113   -0.006197
      6          6           0        3.685902    0.697084    0.016681
      7          6           0        3.699570   -0.682508   -0.010388
      8          6           0        2.488858   -1.351939    0.001540
      9          6           0       -0.004144   -1.454571    0.031023
     10          6           0        0.004074    1.430065   -0.019860
     11          6           0       -1.264047   -0.681600   -0.000494
     12          6           0       -1.235429    0.728725   -0.008697
     13          6           0        1.260188   -0.672798   -0.000217
     14          6           0        1.239595    0.733669   -0.008514
     15          1           0       -2.495134   -2.464666   -0.023265
     16          1           0       -4.640285   -1.215567   -0.053395
     17          1           0       -4.605690    1.272483    0.058264
     18          1           0       -2.460495    2.461410    0.016802
     19          1           0        0.007155    2.510898    0.004049
     20          1           0        2.474690    2.519327    0.018320
     21          1           0        4.612941    1.270208    0.058453
     22          1           0        4.633380   -1.206003   -0.052921
     23          1           0        2.481205   -2.422862   -0.022132
     24          1           0       -0.002094   -2.126037   -0.850922
     25          1           0       -0.010139   -2.167215    0.867785
 ---------------------------------------------------------------------

 SCF Done:  E(RM062X) =  -539.812907313     A.U. after   14 cycles

 Excitation energies and oscillator strengths:

 Excited State   1:      Singlet-A      2.8178 eV  440.00 nm  f=0.0276  <S**2>=0.000
      47 -> 48         0.70414
 This state for optimization and/or second-order correction.
 Total Energy, E(TD-HF/TD-DFT) =  -539.709354952
 Copying the excited state density for this state as the 1-particle RhoCI density.

 Excited State   2:      Singlet-A      3.2607 eV  380.24 nm  f=0.0044  <S**2>=0.000
      45 -> 48         0.60862
      46 -> 48        -0.34873

 Excited State   3:      Singlet-A      3.4806 eV  356.22 nm  f=0.5441  <S**2>=0.000
      45 -> 48         0.35071
      46 -> 48         0.60421

 The electronic state is 1-A.
 Alpha  occ. eigenvalues --  -10.77534 -10.73193 -10.73058 -10.72297 -10.72247
 Alpha  occ. eigenvalues --  -10.71594 -10.71156 -10.70884 -10.70858 -10.70688
 Alpha  occ. eigenvalues --  -10.70089 -10.69614 -10.69599 -10.69465  -1.16237
 Alpha  occ. eigenvalues --   -1.12279  -1.06774  -1.05570  -1.01145  -1.00023
 Alpha  occ. eigenvalues --   -0.95619  -0.90877  -0.86214  -0.85702  -0.83655
 Alpha  occ. eigenvalues --   -0.78227  -0.75769  -0.74196  -0.69396  -0.69091
 Alpha  occ. eigenvalues --   -0.68263  -0.67998  -0.67957  -0.64498  -0.64046
 Alpha  occ. eigenvalues --   -0.62821  -0.61662  -0.59965  -0.59663  -0.58822
 Alpha  occ. eigenvalues --   -0.56683  -0.55005  -0.54556  -0.52387  -0.46570
 Alpha  occ. eigenvalues --   -0.45973  -0.44423
 Alpha virt. eigenvalues --   -0.25962  -0.14409  -0.13975  -0.12498  -0.06900
 Alpha virt. eigenvalues --   -0.05496  -0.05370  -0.04073  -0.02688  -0.01618
 Alpha virt. eigenvalues --   -0.00238   0.00368   0.00574   0.01931   0.02301

 Mulliken charges:
               1
     1  C   -0.100346
     2  C   -0.033585
     3  C   -0.119886
     4  C   -0.060098
     5  C   -0.068010
     6  C   -0.119528
     7  C   -0.028015
     8  C   -0.100110
     9  C   -0.309135
    10  C   -0.064742
    11  C    0.106945
    12  C    0.050213
    13  C    0.097196
    14  C    0.061671
    15  H    0.137359
    16  H    0.147681
    17  H    0.144545
    18  H    0.133089
    19  H    0.159936
    20  H    0.130819
    21  H    0.141713
    22  H    0.149038
    23  H    0.137091
    24  H    0.203349
    25  H    0.202808
 Sum of Mulliken charges =   1.00000

 Dipole moment (field-independent basis, Debye):
    X=             -0.0233    Y=              0.1952    Z=             -0.0064  Tot=              0.1966
 Quadrupole moment (field-independent basis, Debye-Ang):
   XX=            -30.9721   YY=            -56.3988   ZZ=            -83.3690
   XY=              0.1741   XZ=             -0.0029   YZ=              0.3451

 Normal termination of Gaussian 16 at Mon Jul 25 21:18:50 2022.
