 Gaussian 16, Revision C.01,
 Gaussian 16:  ES64L-G16RevC.01  3-Jul-2019

 ---------------------------------------------------------------
 #n M062X/6-311++G(d,p) TD(NStates=1) EmpiricalDispersion=GD3 SP
 ---------------------------------------------------------------

 ----
 SP_1
 ----
 Symbolic Z-matrix:
 Charge =  1 Multiplicity = 1

                         Standard orientation:
 ---------------------------------------------------------------------
 Center     Atomic      Atomic             Coordinates (Angstroms)
 Number     Number       Type             X           Y           Z
 ---------------------------------------------------------------------
      1          6           0        2.505817   -1.357481    0.000018
      2          6           0        3.708016   -0.662528   -0.002447
      3          6           0        3.677144    0.723037    0.000631
      4          6           0        2.449807    1.410118   -0.000833
      5          6           0       -2.476770    1.404932   -0.000807
      6          6           0       -3.690817    0.704467    0.000646
      7          6           0       -3.695143   -0.681434   -0.002434
      8          6           0       -2.479757   -1.363232    0.000043
      9          6           0        0.013921   -1.453363    0.004824
     10          6           0       -0.013688    1.429131   -0.003772
     11          6           0        1.268651   -0.677897   -0.000463
     12          6           0        1.230568    0.729600    0.002664
     13          6           0       -1.255682   -0.676074   -0.000440
     14          6           0       -1.244567    0.731893    0.002688
     15          1           0        2.511601   -2.441673   -0.002391
     16          1           0        4.648423   -1.191235   -0.007629
     17          1           0        4.597132    1.292464    0.005890
     18          1           0        2.443767    2.489607    0.001566
     19          1           0       -0.024043    2.510178   -0.001370
     20          1           0       -2.491466    2.490338    0.001604
     21          1           0       -4.621505    1.252168    0.005869
     22          1           0       -4.625212   -1.232057   -0.007650
     23          1           0       -2.464792   -2.445336   -0.002362
     24          1           0        0.021559   -2.147628    0.861883
     25          1           0        0.019546   -2.143827   -0.857313
 ---------------------------------------------------------------------

 SCF Done:  E(RM062X) =  -539.759894402     A.U. after   15 cycles

 Excitation energies and oscillator strengths:

 Excited State   1:      Singlet-A      2.8186 eV  439.88 nm  f=0.0287  <S**2>=0.000
      47 -> 48         0.70390
 This state for optimization and/or second-order correction.
 Total Energy, E(TD-HF/TD-DFT) =  -539.656312220
 Copying the excited state density for this state as the 1-particle RhoCI density.

 The electronic state is 1-A.
 Alpha  occ. eigenvalues --  -10.77666 -10.73326 -10.73155 -10.72490 -10.72381
 Alpha  occ. eigenvalues --  -10.71564 -10.71178 -10.71175 -10.70980 -10.70832
 Alpha  occ. eigenvalues --  -10.70018 -10.69926 -10.69725 -10.69536  -1.16444
 Alpha  occ. eigenvalues --   -1.12466  -1.06947  -1.05729  -1.01313  -1.00193
 Alpha  occ. eigenvalues --   -0.95774  -0.91055  -0.86420  -0.85898  -0.83815
 Alpha  occ. eigenvalues --   -0.78400  -0.76024  -0.74418  -0.69564  -0.69244
 Alpha  occ. eigenvalues --   -0.68506  -0.68189  -0.68100  -0.64742  -0.64280
 Alpha  occ. eigenvalues --   -0.63066  -0.61857  -0.60043  -0.59640  -0.59089
 Alpha  occ. eigenvalues --   -0.56900  -0.55208  -0.54836  -0.52439  -0.46636
 Alpha  occ. eigenvalues --   -0.46067  -0.44479
 Alpha virt. eigenvalues --   -0.26089  -0.14670  -0.14097  -0.12773  -0.11179
 Alpha virt. eigenvalues --   -0.10086  -0.09231  -0.08002  -0.07951  -0.07476
 Alpha virt. eigenvalues --   -0.07204  -0.07144  -0.05643  -0.05581  -0.05333

 Mulliken charges:
               1
     1  C    0.087487
     2  C   -0.413247
     3  C   -0.437959
     4  C    0.030028
     5  C    0.027750
     6  C   -0.448367
     7  C   -0.403370
     8  C    0.094396
     9  C   -0.326171
    10  C    0.095187
    11  C   -0.627788
    12  C    0.674499
    13  C   -0.624804
    14  C    0.653110
    15  H    0.237642
    16  H    0.254891
    17  H    0.249243
    18  H    0.218706
    19  H    0.190108
    20  H    0.225712
    21  H    0.248546
    22  H    0.257821
    23  H    0.236451
    24  H    0.251446
    25  H    0.248684
 Sum of Mulliken charges =   1.00000

 Dipole moment (field-independent basis, Debye):
    X=             -0.1898    Y=              0.1875    Z=             -0.0026  Tot=              0.2668
 Quadrupole moment (field-independent basis, Debye-Ang):
   XX=            -31.1072   YY=            -56.2659   ZZ=            -84.1423
   XY=             -0.1915   XZ=              0.0015   YZ=              0.0283

 Normal termination of Gaussian 16 at Mon Jul 25 20:25:46 2022.
