 Gaussian 16, Revision C.01,
 Gaussian 16:  ES64L-G16RevC.01  3-Jul-2019

 ---------------------------------------------------------------
 #n M062X/6-311++G(d,p) TD(NStates=1) EmpiricalDispersion=GD3 SP
 ---------------------------------------------------------------

 ----
 SP_2
 ----
 Symbolic Z-matrix:
 Charge =  1 Multiplicity = 1

                         Standard orientation:
 ---------------------------------------------------------------------
 Center     Atomic      Atomic             Coordinates (Angstroms)
 Number     Number       Type             X           Y           Z
 ---------------------------------------------------------------------
      1          6           0        2.519102   -1.354432    0.000025
      2          6           0        3.714687   -0.652977   -0.004888
      3          6           0        3.670550    0.732218    0.001269
      4          6           0        2.436595    1.412530   -0.001678
      5          6           0       -2.490511    1.402165   -0.001603
      6          6           0       -3.697891    0.695091    0.001285
      7          6           0       -3.688947   -0.690778   -0.004874
      8          6           0       -2.466993   -1.365928    0.000096
      9          6           0        0.027836   -1.453206    0.009647
     10          6           0       -0.027372    1.428970   -0.007544
     11          6           0        1.275333   -0.678718   -0.000942
     12          6           0        1.223775    0.728339    0.005312
     13          6           0       -1.249400   -0.675071   -0.000864
     14          6           0       -1.251767    0.732928    0.005393
     15          1           0        2.535286   -2.439511   -0.004797
     16          1           0        4.660075   -1.170626   -0.015211
     17          1           0        4.585006    1.312397    0.011824
     18          1           0        2.420277    2.488904    0.003105
     19          1           0       -0.048077    2.509861   -0.002741
     20          1           0       -2.515657    2.490372    0.003233
     21          1           0       -4.633742    1.231826    0.011693
     22          1           0       -4.613663   -1.252250   -0.015346
     23          1           0       -2.441686   -2.446831   -0.004707
     24          1           0        0.043117   -2.149245    0.864162
     25          1           0        0.039076   -2.141682   -0.855021
 ---------------------------------------------------------------------

 SCF Done:  E(RM062X) =  -539.758887310     A.U. after   15 cycles

 Excitation energies and oscillator strengths:

 Excited State   1:      Singlet-A      2.8067 eV  441.74 nm  f=0.0287  <S**2>=0.000
      47 -> 48         0.70302
 This state for optimization and/or second-order correction.
 Total Energy, E(TD-HF/TD-DFT) =  -539.655742910
 Copying the excited state density for this state as the 1-particle RhoCI density.

 The electronic state is 1-A.
 Alpha  occ. eigenvalues --  -10.77663 -10.73410 -10.73068 -10.72544 -10.72326
 Alpha  occ. eigenvalues --  -10.71759 -10.71354 -10.70982 -10.70981 -10.70662
 Alpha  occ. eigenvalues --  -10.70064 -10.69880 -10.69821 -10.69442  -1.16449
 Alpha  occ. eigenvalues --   -1.12466  -1.06952  -1.05729  -1.01311  -1.00221
 Alpha  occ. eigenvalues --   -0.95750  -0.91052  -0.86423  -0.85892  -0.83808
 Alpha  occ. eigenvalues --   -0.78405  -0.76015  -0.74416  -0.69576  -0.69244
 Alpha  occ. eigenvalues --   -0.68514  -0.68173  -0.68099  -0.64752  -0.64266
 Alpha  occ. eigenvalues --   -0.63072  -0.61827  -0.60133  -0.59554  -0.59083
 Alpha  occ. eigenvalues --   -0.56907  -0.55186  -0.54831  -0.52442  -0.46671
 Alpha  occ. eigenvalues --   -0.46093  -0.44414
 Alpha virt. eigenvalues --   -0.26092  -0.14673  -0.14098  -0.12770  -0.11180
 Alpha virt. eigenvalues --   -0.10086  -0.09233  -0.08028  -0.07928  -0.07477
 Alpha virt. eigenvalues --   -0.07208  -0.07139  -0.05644  -0.05581  -0.05334

 Mulliken charges:
               1
     1  C    0.076505
     2  C   -0.419542
     3  C   -0.437857
     4  C    0.064549
     5  C    0.063339
     6  C   -0.460565
     7  C   -0.400146
     8  C    0.090728
     9  C   -0.313667
    10  C    0.091095
    11  C   -0.600059
    12  C    0.632015
    13  C   -0.593067
    14  C    0.587749
    15  H    0.237762
    16  H    0.253531
    17  H    0.249588
    18  H    0.215764
    19  H    0.189224
    20  H    0.229935
    21  H    0.248125
    22  H    0.259360
    23  H    0.235396
    24  H    0.252872
    25  H    0.247368
 Sum of Mulliken charges =   1.00000

 Dipole moment (field-independent basis, Debye):
    X=             -0.3794    Y=              0.1860    Z=             -0.0051  Tot=              0.4226
 Quadrupole moment (field-independent basis, Debye-Ang):
   XX=            -31.0766   YY=            -56.2776   ZZ=            -84.1427
   XY=             -0.3828   XZ=              0.0026   YZ=              0.0567

 Normal termination of Gaussian 16 at Mon Jul 25 20:29:55 2022.
