 Gaussian 16, Revision C.01,
 Gaussian 16:  ES64L-G16RevC.01  3-Jul-2019

 ---------------------------------------------------------------
 #n M062X/6-311++G(d,p) TD(NStates=1) EmpiricalDispersion=GD3 SP
 ---------------------------------------------------------------

 ----
 SP_4
 ----
 Symbolic Z-matrix:
 Charge =  1 Multiplicity = 1

                         Standard orientation:
 ---------------------------------------------------------------------
 Center     Atomic      Atomic             Coordinates (Angstroms)
 Number     Number       Type             X           Y           Z
 ---------------------------------------------------------------------
      1          6           0        2.546159   -1.348004    0.000007
      2          6           0        3.728489   -0.633713   -0.009747
      3          6           0        3.657861    0.750343    0.002561
      4          6           0        2.410735    1.416978   -0.003405
      5          6           0       -2.518486    1.396297   -0.003159
      6          6           0       -3.712501    0.676190    0.002544
      7          6           0       -3.677048   -0.709213   -0.009773
      8          6           0       -2.442019   -1.370943    0.000238
      9          6           0        0.055631   -1.452580    0.019295
     10          6           0       -0.054703    1.428328   -0.015090
     11          6           0        1.289078   -0.680185   -0.001948
     12          6           0        1.210614    0.725586    0.010555
     13          6           0       -1.237253   -0.672876   -0.001663
     14          6           0       -1.266553    0.734779    0.010852
     15          1           0        2.583174   -2.434541   -0.009654
     16          1           0        4.683453   -1.129063   -0.030234
     17          1           0        4.560898    1.351781    0.023829
     18          1           0        2.374059    2.486816    0.006108
     19          1           0       -0.096082    2.508593   -0.005484
     20          1           0       -2.564674    2.489788    0.006564
     21          1           0       -4.658295    1.190805    0.023201
     22          1           0       -4.590701   -1.292145   -0.030876
     23          1           0       -2.396116   -2.449134   -0.009350
     24          1           0        0.086204   -2.151897    0.868711
     25          1           0        0.078060   -2.136922   -0.850424
 ---------------------------------------------------------------------

 SCF Done:  E(RM062X) =  -539.754866941     A.U. after   15 cycles

 Excitation energies and oscillator strengths:

 Excited State   1:      Singlet-A      2.7637 eV  448.62 nm  f=0.0289  <S**2>=0.000
      47 -> 48         0.70123
 This state for optimization and/or second-order correction.
 Total Energy, E(TD-HF/TD-DFT) =  -539.653304545
 Copying the excited state density for this state as the 1-particle RhoCI density.

 The electronic state is 1-A.
 Alpha  occ. eigenvalues --  -10.77650 -10.73577 -10.72896 -10.72651 -10.72216
 Alpha  occ. eigenvalues --  -10.72148 -10.71710 -10.70987 -10.70597 -10.70330
 Alpha  occ. eigenvalues --  -10.70154 -10.70015 -10.69789 -10.69259  -1.16470
 Alpha  occ. eigenvalues --   -1.12466  -1.06974  -1.05731  -1.01303  -1.00326
 Alpha  occ. eigenvalues --   -0.95661  -0.91042  -0.86434  -0.85865  -0.83781
 Alpha  occ. eigenvalues --   -0.78425  -0.75982  -0.74410  -0.69620  -0.69244
 Alpha  occ. eigenvalues --   -0.68539  -0.68121  -0.68090  -0.64784  -0.64215
 Alpha  occ. eigenvalues --   -0.63095  -0.61712  -0.60353  -0.59352  -0.59055
 Alpha  occ. eigenvalues --   -0.56933  -0.55102  -0.54814  -0.52452  -0.46817
 Alpha  occ. eigenvalues --   -0.46160  -0.44186
 Alpha virt. eigenvalues --   -0.26104  -0.14683  -0.14103  -0.12756  -0.11185
 Alpha virt. eigenvalues --   -0.10085  -0.09242  -0.08080  -0.07883  -0.07479
 Alpha virt. eigenvalues --   -0.07217  -0.07124  -0.05646  -0.05582  -0.05342

 Mulliken charges:
               1
     1  C    0.049717
     2  C   -0.421881
     3  C   -0.429662
     4  C    0.132370
     5  C    0.139586
     6  C   -0.480876
     7  C   -0.384960
     8  C    0.079947
     9  C   -0.325549
    10  C    0.039175
    11  C   -0.530895
    12  C    0.556670
    13  C   -0.509401
    14  C    0.466519
    15  H    0.238613
    16  H    0.250830
    17  H    0.250283
    18  H    0.210362
    19  H    0.186044
    20  H    0.239018
    21  H    0.247092
    22  H    0.262371
    23  H    0.233977
    24  H    0.255764
    25  H    0.244886
 Sum of Mulliken charges =   1.00000

 Dipole moment (field-independent basis, Debye):
    X=             -0.7567    Y=              0.1802    Z=             -0.0101  Tot=              0.7779
 Quadrupole moment (field-independent basis, Debye-Ang):
   XX=            -30.9564   YY=            -56.3240   ZZ=            -84.1443
   XY=             -0.7636   XZ=              0.0036   YZ=              0.1133

 Normal termination of Gaussian 16 at Mon Jul 25 20:38:04 2022.
