 Gaussian 16, Revision C.01,
 Gaussian 16:  ES64L-G16RevC.01  3-Jul-2019

 ---------------------------------------------------------------
 #n M062X/6-311++G(d,p) TD(NStates=1) EmpiricalDispersion=GD3 SP
 ---------------------------------------------------------------

 -----
 SP_-1
 -----
 Symbolic Z-matrix:
 Charge =  1 Multiplicity = 1

                         Standard orientation:
 ---------------------------------------------------------------------
 Center     Atomic      Atomic             Coordinates (Angstroms)
 Number     Number       Type             X           Y           Z
 ---------------------------------------------------------------------
      1          6           0       -2.479757   -1.363232    0.000028
      2          6           0       -3.695143   -0.681434   -0.002454
      3          6           0       -3.690816    0.704467    0.000625
      4          6           0       -2.476770    1.404932   -0.000821
      5          6           0        2.449807    1.410118   -0.000819
      6          6           0        3.677144    0.723036    0.000652
      7          6           0        3.708016   -0.662528   -0.002427
      8          6           0        2.505817   -1.357481    0.000031
      9          6           0        0.013920   -1.453363    0.004823
     10          6           0       -0.013688    1.429131   -0.003772
     11          6           0       -1.255682   -0.676074   -0.000447
     12          6           0       -1.244567    0.731893    0.002681
     13          6           0        1.268651   -0.677897   -0.000456
     14          6           0        1.230568    0.729600    0.002671
     15          1           0       -2.464792   -2.445336   -0.002376
     16          1           0       -4.625212   -1.232057   -0.007676
     17          1           0       -4.621505    1.252168    0.005844
     18          1           0       -2.491466    2.490338    0.001591
     19          1           0       -0.024043    2.510178   -0.001370
     20          1           0        2.443767    2.489607    0.001580
     21          1           0        4.597132    1.292464    0.005915
     22          1           0        4.648423   -1.191235   -0.007604
     23          1           0        2.511601   -2.441673   -0.002378
     24          1           0        0.021550   -2.143808   -0.857313
     25          1           0        0.019554   -2.147647    0.861883
 ---------------------------------------------------------------------

 SCF Done:  E(RM062X) =  -539.759894366     A.U. after   15 cycles

 Excitation energies and oscillator strengths:

 Excited State   1:      Singlet-A      2.8186 eV  439.88 nm  f=0.0287  <S**2>=0.000
      47 -> 48         0.70390
 This state for optimization and/or second-order correction.
 Total Energy, E(TD-HF/TD-DFT) =  -539.656312180
 Copying the excited state density for this state as the 1-particle RhoCI density.

 The electronic state is 1-A.
 Alpha  occ. eigenvalues --  -10.77666 -10.73326 -10.73155 -10.72490 -10.72381
 Alpha  occ. eigenvalues --  -10.71564 -10.71178 -10.71175 -10.70980 -10.70832
 Alpha  occ. eigenvalues --  -10.70018 -10.69926 -10.69725 -10.69536  -1.16444
 Alpha  occ. eigenvalues --   -1.12466  -1.06947  -1.05729  -1.01313  -1.00193
 Alpha  occ. eigenvalues --   -0.95774  -0.91055  -0.86420  -0.85898  -0.83815
 Alpha  occ. eigenvalues --   -0.78400  -0.76024  -0.74418  -0.69564  -0.69244
 Alpha  occ. eigenvalues --   -0.68506  -0.68189  -0.68100  -0.64742  -0.64280
 Alpha  occ. eigenvalues --   -0.63066  -0.61857  -0.60043  -0.59640  -0.59089
 Alpha  occ. eigenvalues --   -0.56900  -0.55208  -0.54836  -0.52439  -0.46636
 Alpha  occ. eigenvalues --   -0.46067  -0.44479
 Alpha virt. eigenvalues --   -0.26089  -0.14670  -0.14097  -0.12773  -0.11179
 Alpha virt. eigenvalues --   -0.10086  -0.09231  -0.08003  -0.07951  -0.07476
 Alpha virt. eigenvalues --   -0.07204  -0.07144  -0.05643  -0.05581  -0.05333

 Mulliken charges:
               1
     1  C    0.094389
     2  C   -0.403300
     3  C   -0.448349
     4  C    0.027776
     5  C    0.030003
     6  C   -0.437973
     7  C   -0.413322
     8  C    0.087490
     9  C   -0.326175
    10  C    0.095178
    11  C   -0.623950
    12  C    0.653351
    13  C   -0.628623
    14  C    0.674256
    15  H    0.236465
    16  H    0.257822
    17  H    0.248545
    18  H    0.225715
    19  H    0.190108
    20  H    0.218704
    21  H    0.249243
    22  H    0.254890
    23  H    0.237628
    24  H    0.248682
    25  H    0.251448
 Sum of Mulliken charges =   1.00000

 Dipole moment (field-independent basis, Debye):
    X=             -0.1898    Y=              0.1875    Z=             -0.0026  Tot=              0.2668
 Quadrupole moment (field-independent basis, Debye-Ang):
   XX=            -31.1072   YY=            -56.2659   ZZ=            -84.1423
   XY=             -0.1915   XZ=             -0.0019   YZ=              0.0283

 Normal termination of Gaussian 16 at Mon Jul 25 20:19:53 2022.
