 Gaussian 16, Revision C.01,
 Gaussian 16:  ES64L-G16RevC.01  3-Jul-2019

 ---------------------------------------------------------------
 #n M062X/6-311++G(d,p) TD(NStates=1) EmpiricalDispersion=GD3 SP
 ---------------------------------------------------------------

 -----
 SP_-3
 -----
 Symbolic Z-matrix:
 Charge =  1 Multiplicity = 1

                         Standard orientation:
 ---------------------------------------------------------------------
 Center     Atomic      Atomic             Coordinates (Angstroms)
 Number     Number       Type             X           Y           Z
 ---------------------------------------------------------------------
      1          6           0       -2.454412   -1.368499    0.000118
      2          6           0       -3.682914   -0.700039   -0.007383
      3          6           0       -3.705120    0.685664    0.001858
      4          6           0       -2.504417    1.399285   -0.002426
      5          6           0        2.423569    1.414817   -0.002492
      6          6           0        3.664122    0.741321    0.001974
      7          6           0        3.721513   -0.643371   -0.007261
      8          6           0        2.532551   -1.351272    0.000060
      9          6           0        0.041741   -1.452945    0.014469
     10          6           0       -0.041045    1.428702   -0.011315
     11          6           0       -1.243256   -0.674005   -0.001293
     12          6           0       -1.259097    0.733890    0.008095
     13          6           0        1.282142   -0.679480   -0.001417
     14          6           0        1.217123    0.727001    0.007964
     15          1           0       -2.418792   -2.448097   -0.007082
     16          1           0       -4.602157   -1.272282   -0.023167
     17          1           0       -4.646007    1.211368    0.017396
     18          1           0       -2.540062    2.490188    0.004850
     19          1           0       -0.072092    2.509332   -0.004108
     20          1           0        2.397038    2.487974    0.004665
     21          1           0        4.572926    1.332172    0.017883
     22          1           0        4.671753   -1.149899   -0.022671
     23          1           0        2.559147   -2.437132   -0.007181
     24          1           0        0.064594   -2.139206   -0.852727
     25          1           0        0.058656   -2.150842    0.866434
 ---------------------------------------------------------------------

 SCF Done:  E(RM062X) =  -539.757209834     A.U. after   15 cycles

 Excitation energies and oscillator strengths:

 Excited State   1:      Singlet-A      2.7880 eV  444.71 nm  f=0.0287  <S**2>=0.000
      47 -> 48         0.70204
 This state for optimization and/or second-order correction.
 Total Energy, E(TD-HF/TD-DFT) =  -539.654753852
 Copying the excited state density for this state as the 1-particle RhoCI density.

 The electronic state is 1-A.
 Alpha  occ. eigenvalues --  -10.77658 -10.73494 -10.72983 -10.72598 -10.72271
 Alpha  occ. eigenvalues --  -10.71953 -10.71531 -10.70984 -10.70789 -10.70495
 Alpha  occ. eigenvalues --  -10.70109 -10.69918 -10.69834 -10.69350  -1.16458
 Alpha  occ. eigenvalues --   -1.12466  -1.06961  -1.05730  -1.01308  -1.00266
 Alpha  occ. eigenvalues --   -0.95712  -0.91048  -0.86428  -0.85881  -0.83797
 Alpha  occ. eigenvalues --   -0.78414  -0.76001  -0.74414  -0.69595  -0.69243
 Alpha  occ. eigenvalues --   -0.68524  -0.68159  -0.68088  -0.64766  -0.64244
 Alpha  occ. eigenvalues --   -0.63083  -0.61778  -0.60239  -0.59453  -0.59074
 Alpha  occ. eigenvalues --   -0.56919  -0.55151  -0.54824  -0.52446  -0.46732
 Alpha  occ. eigenvalues --   -0.46127  -0.44313
 Alpha virt. eigenvalues --   -0.26097  -0.14677  -0.14100  -0.12764  -0.11182
 Alpha virt. eigenvalues --   -0.10085  -0.09237  -0.08054  -0.07905  -0.07478
 Alpha virt. eigenvalues --   -0.07212  -0.07132  -0.05645  -0.05582  -0.05337

 Mulliken charges:
               1
     1  C    0.084961
     2  C   -0.393313
     3  C   -0.471733
     4  C    0.104510
     5  C    0.101497
     6  C   -0.435363
     7  C   -0.422753
     8  C    0.062313
     9  C   -0.313156
    10  C    0.070688
    11  C   -0.544129
    12  C    0.522706
    13  C   -0.570013
    14  C    0.584808
    15  H    0.234688
    16  H    0.260886
    17  H    0.247622
    18  H    0.234498
    19  H    0.187826
    20  H    0.213019
    21  H    0.249940
    22  H    0.252177
    23  H    0.237910
    24  H    0.246091
    25  H    0.254322
 Sum of Mulliken charges =   1.00000

 Dipole moment (field-independent basis, Debye):
    X=             -0.5683    Y=              0.1836    Z=             -0.0076  Tot=              0.5973
 Quadrupole moment (field-independent basis, Debye-Ang):
   XX=            -31.0260   YY=            -56.2969   ZZ=            -84.1435
   XY=             -0.5734   XZ=             -0.0067   YZ=              0.0848

 Normal termination of Gaussian 16 at Mon Jul 25 20:12:12 2022.
