 Gaussian 16, Revision C.01,
 Gaussian 16:  ES64L-G16RevC.01  3-Jul-2019

 ---------------------------------------------------------------
 #n M062X/6-311++G(d,p) TD(NStates=1) EmpiricalDispersion=GD3 SP
 ---------------------------------------------------------------

 ----
 SP_5
 ----
 Symbolic Z-matrix:
 Charge =  1 Multiplicity = 1

                         Standard orientation:
 ---------------------------------------------------------------------
 Center     Atomic      Atomic             Coordinates (Angstroms)
 Number     Number       Type             X           Y           Z
 ---------------------------------------------------------------------
      1          6           0        2.559920   -1.344633   -0.000017
      2          6           0        3.735614   -0.624013   -0.012166
      3          6           0        3.651772    0.759275    0.003217
      4          6           0        2.398096    1.419008   -0.004287
      5          6           0       -2.532710    1.393205   -0.003920
      6          6           0       -3.720033    0.666678    0.003164
      7          6           0       -3.671350   -0.718293   -0.012233
      8          6           0       -2.429819   -1.373258    0.000326
      9          6           0        0.069501   -1.452111    0.024120
     10          6           0       -0.068342    1.427847   -0.018863
     11          6           0        1.296137   -0.680834   -0.002474
     12          6           0        1.204250    0.724093    0.013150
     13          6           0       -1.231392   -0.671682   -0.002037
     14          6           0       -1.274135    0.735597    0.013607
     15          1           0        2.607358   -2.431741   -0.012104
     16          1           0        4.695170   -1.108132   -0.037675
     17          1           0        4.548928    1.371214    0.029899
     18          1           0        2.351349    2.485427    0.007570
     19          1           0       -0.120035    2.507644   -0.006857
     20          1           0       -2.589482    2.489176    0.008266
     21          1           0       -4.670603    1.170147    0.028886
     22          1           0       -4.579299   -1.311828   -0.038709
     23          1           0       -2.373669   -2.449938   -0.011646
     24          1           0        0.107716   -2.152933    0.870980
     25          1           0        0.097500   -2.134308   -0.848118
 ---------------------------------------------------------------------

 SCF Done:  E(RM062X) =  -539.751857798     A.U. after   15 cycles

 Excitation energies and oscillator strengths:

 Excited State   1:      Singlet-A      2.7350 eV  453.33 nm  f=0.0292  <S**2>=0.000
      47 -> 48         0.70069
 This state for optimization and/or second-order correction.
 Total Energy, E(TD-HF/TD-DFT) =  -539.651350015
 Copying the excited state density for this state as the 1-particle RhoCI density.

 The electronic state is 1-A.
 Alpha  occ. eigenvalues --  -10.77641 -10.73659 -10.72810 -10.72704 -10.72342
 Alpha  occ. eigenvalues --  -10.72161 -10.71890 -10.70990 -10.70407 -10.70198
 Alpha  occ. eigenvalues --  -10.70169 -10.70113 -10.69743 -10.69170  -1.16485
 Alpha  occ. eigenvalues --   -1.12466  -1.06990  -1.05732  -1.01298  -1.00402
 Alpha  occ. eigenvalues --   -0.95598  -0.91034  -0.86442  -0.85846  -0.83761
 Alpha  occ. eigenvalues --   -0.78439  -0.75958  -0.74406  -0.69650  -0.69244
 Alpha  occ. eigenvalues --   -0.68555  -0.68104  -0.68067  -0.64805  -0.64181
 Alpha  occ. eigenvalues --   -0.63109  -0.61632  -0.60467  -0.59258  -0.59026
 Alpha  occ. eigenvalues --   -0.56950  -0.55041  -0.54800  -0.52459  -0.46923
 Alpha  occ. eigenvalues --   -0.46188  -0.44039
 Alpha virt. eigenvalues --   -0.26112  -0.14690  -0.14107  -0.12745  -0.11188
 Alpha virt. eigenvalues --   -0.10084  -0.09250  -0.08107  -0.07862  -0.07480
 Alpha virt. eigenvalues --   -0.07223  -0.07114  -0.05648  -0.05583  -0.05347

 Mulliken charges:
               1
     1  C    0.038423
     2  C   -0.420612
     3  C   -0.422646
     4  C    0.156573
     5  C    0.166923
     6  C   -0.488132
     7  C   -0.375022
     8  C    0.077199
     9  C   -0.344472
    10  C    0.003382
    11  C   -0.504014
    12  C    0.538609
    13  C   -0.473127
    14  C    0.427501
    15  H    0.239341
    16  H    0.249478
    17  H    0.250631
    18  H    0.207657
    19  H    0.184010
    20  H    0.243363
    21  H    0.246557
    22  H    0.263870
    23  H    0.233582
    24  H    0.257213
    25  H    0.243713
 Sum of Mulliken charges =   1.00000

 Dipole moment (field-independent basis, Debye):
    X=             -0.9440    Y=              0.1759    Z=             -0.0128  Tot=              0.9604
 Quadrupole moment (field-independent basis, Debye-Ang):
   XX=            -30.8690   YY=            -56.3587   ZZ=            -84.1450
   XY=             -0.9527   XZ=              0.0036   YZ=              0.1414

 Normal termination of Gaussian 16 at Mon Jul 25 20:42:09 2022.
