 Gaussian 16, Revision C.01,
 Gaussian 16:  ES64L-G16RevC.01  3-Jul-2019

 ---------------------------------------------------------------
 #n M062X/6-311++G(d,p) TD(NStates=1) EmpiricalDispersion=GD3 SP
 ---------------------------------------------------------------

 -----
 SP_-5
 -----
 Symbolic Z-matrix:
 Charge =  1 Multiplicity = 1

                         Standard orientation:
 ---------------------------------------------------------------------
 Center     Atomic      Atomic             Coordinates (Angstroms)
 Number     Number       Type             X           Y           Z
 ---------------------------------------------------------------------
      1          6           0       -2.429819   -1.373257    0.000250
      2          6           0       -3.671350   -0.718291   -0.012338
      3          6           0       -3.720033    0.666679    0.003065
      4          6           0       -2.532709    1.393206   -0.003982
      5          6           0        2.398097    1.419007   -0.004212
      6          6           0        3.651772    0.759273    0.003322
      7          6           0        3.735614   -0.624015   -0.012067
      8          6           0        2.559920   -1.344634    0.000045
      9          6           0        0.069500   -1.452111    0.024113
     10          6           0       -0.068341    1.427847   -0.018856
     11          6           0       -1.231392   -0.671682   -0.002075
     12          6           0       -1.274135    0.735597    0.013576
     13          6           0        1.296137   -0.680834   -0.002442
     14          6           0        1.204250    0.724092    0.013188
     15          1           0       -2.373670   -2.449937   -0.011727
     16          1           0       -4.579298   -1.311826   -0.038844
     17          1           0       -4.670603    1.170149    0.028764
     18          1           0       -2.589482    2.489177    0.008209
     19          1           0       -0.120034    2.507644   -0.006845
     20          1           0        2.351349    2.485426    0.007649
     21          1           0        4.548928    1.371212    0.030033
     22          1           0        4.695170   -1.108134   -0.037551
     23          1           0        2.607358   -2.431742   -0.012047
     24          1           0        0.107511   -2.133825   -0.848124
     25          1           0        0.097702   -2.153417    0.870966
 ---------------------------------------------------------------------

 SCF Done:  E(RM062X) =  -539.751853196     A.U. after   15 cycles

 Excitation energies and oscillator strengths:

 Excited State   1:      Singlet-A      2.7350 eV  453.33 nm  f=0.0293  <S**2>=0.000
      47 -> 48         0.70069
 This state for optimization and/or second-order correction.
 Total Energy, E(TD-HF/TD-DFT) =  -539.651345041
 Copying the excited state density for this state as the 1-particle RhoCI density.

 The electronic state is 1-A.
 Alpha  occ. eigenvalues --  -10.77641 -10.73657 -10.72812 -10.72704 -10.72342
 Alpha  occ. eigenvalues --  -10.72161 -10.71889 -10.70991 -10.70407 -10.70197
 Alpha  occ. eigenvalues --  -10.70169 -10.70112 -10.69744 -10.69170  -1.16485
 Alpha  occ. eigenvalues --   -1.12466  -1.06990  -1.05733  -1.01298  -1.00402
 Alpha  occ. eigenvalues --   -0.95598  -0.91034  -0.86442  -0.85846  -0.83761
 Alpha  occ. eigenvalues --   -0.78439  -0.75958  -0.74406  -0.69650  -0.69244
 Alpha  occ. eigenvalues --   -0.68550  -0.68137  -0.68039  -0.64805  -0.64181
 Alpha  occ. eigenvalues --   -0.63109  -0.61635  -0.60462  -0.59256  -0.59031
 Alpha  occ. eigenvalues --   -0.56950  -0.55041  -0.54800  -0.52459  -0.46923
 Alpha  occ. eigenvalues --   -0.46188  -0.44039
 Alpha virt. eigenvalues --   -0.26112  -0.14690  -0.14107  -0.12745  -0.11188
 Alpha virt. eigenvalues --   -0.10084  -0.09250  -0.08107  -0.07862  -0.07480
 Alpha virt. eigenvalues --   -0.07223  -0.07114  -0.05648  -0.05583  -0.05347

 Mulliken charges:
               1
     1  C    0.078077
     2  C   -0.373995
     3  C   -0.487645
     4  C    0.167163
     5  C    0.156627
     6  C   -0.423028
     7  C   -0.421983
     8  C    0.037142
     9  C   -0.344070
    10  C    0.002782
    11  C   -0.459897
    12  C    0.433919
    13  C   -0.515758
    14  C    0.531245
    15  H    0.233947
    16  H    0.263886
    17  H    0.246548
    18  H    0.243386
    19  H    0.183998
    20  H    0.207629
    21  H    0.250643
    22  H    0.249463
    23  H    0.238999
    24  H    0.243691
    25  H    0.257227
 Sum of Mulliken charges =   1.00000

 Dipole moment (field-independent basis, Debye):
    X=             -0.9437    Y=              0.1758    Z=             -0.0128  Tot=              0.9600
 Quadrupole moment (field-independent basis, Debye-Ang):
   XX=            -30.8693   YY=            -56.3585   ZZ=            -84.1450
   XY=             -0.9522   XZ=             -0.0131   YZ=              0.1408

 Normal termination of Gaussian 16 at Mon Jul 25 20:04:08 2022.
