 Gaussian 16, Revision C.01,
 Gaussian 16:  ES64L-G16RevC.01  3-Jul-2019

 ---------------------------------------------------------------
 #n M062X/6-311++G(d,p) TD(NStates=1) EmpiricalDispersion=GD3 SP
 ---------------------------------------------------------------

 -----
 SP_-4
 -----
 Symbolic Z-matrix:
 Charge =  1 Multiplicity = 1

                         Standard orientation:
 ---------------------------------------------------------------------
 Center     Atomic      Atomic             Coordinates (Angstroms)
 Number     Number       Type             X           Y           Z
 ---------------------------------------------------------------------
      1          6           0       -2.442019   -1.370942    0.000179
      2          6           0       -3.677048   -0.709212   -0.009857
      3          6           0       -3.712501    0.676191    0.002465
      4          6           0       -2.518485    1.396298   -0.003210
      5          6           0        2.410735    1.416977   -0.003346
      6          6           0        3.657861    0.750342    0.002645
      7          6           0        3.728489   -0.633714   -0.009667
      8          6           0        2.546158   -1.348005    0.000058
      9          6           0        0.055630   -1.452580    0.019291
     10          6           0       -0.054703    1.428328   -0.015086
     11          6           0       -1.237253   -0.672875   -0.001692
     12          6           0       -1.266553    0.734779    0.010827
     13          6           0        1.289078   -0.680186   -0.001922
     14          6           0        1.210614    0.725586    0.010584
     15          1           0       -2.396117   -2.449133   -0.009412
     16          1           0       -4.590701   -1.292144   -0.030982
     17          1           0       -4.658296    1.190806    0.023103
     18          1           0       -2.564673    2.489788    0.006517
     19          1           0       -0.096081    2.508593   -0.005477
     20          1           0        2.374059    2.486815    0.006170
     21          1           0        4.560898    1.351780    0.023935
     22          1           0        4.683453   -1.129064   -0.030135
     23          1           0        2.583173   -2.434542   -0.009606
     24          1           0        0.086072   -2.136613   -0.850428
     25          1           0        0.078190   -2.152206    0.868702
 ---------------------------------------------------------------------

 SCF Done:  E(RM062X) =  -539.754864595     A.U. after   15 cycles

 Excitation energies and oscillator strengths:

 Excited State   1:      Singlet-A      2.7637 eV  448.62 nm  f=0.0289  <S**2>=0.000
      47 -> 48         0.70123
 This state for optimization and/or second-order correction.
 Total Energy, E(TD-HF/TD-DFT) =  -539.653301993
 Copying the excited state density for this state as the 1-particle RhoCI density.

 The electronic state is 1-A.
 Alpha  occ. eigenvalues --  -10.77650 -10.73576 -10.72897 -10.72651 -10.72216
 Alpha  occ. eigenvalues --  -10.72148 -10.71710 -10.70987 -10.70597 -10.70330
 Alpha  occ. eigenvalues --  -10.70153 -10.70015 -10.69789 -10.69259  -1.16470
 Alpha  occ. eigenvalues --   -1.12466  -1.06974  -1.05731  -1.01303  -1.00327
 Alpha  occ. eigenvalues --   -0.95661  -0.91042  -0.86434  -0.85865  -0.83781
 Alpha  occ. eigenvalues --   -0.78425  -0.75982  -0.74410  -0.69620  -0.69243
 Alpha  occ. eigenvalues --   -0.68536  -0.68144  -0.68070  -0.64784  -0.64215
 Alpha  occ. eigenvalues --   -0.63095  -0.61713  -0.60350  -0.59351  -0.59058
 Alpha  occ. eigenvalues --   -0.56933  -0.55102  -0.54813  -0.52452  -0.46816
 Alpha  occ. eigenvalues --   -0.46160  -0.44186
 Alpha virt. eigenvalues --   -0.26104  -0.14683  -0.14103  -0.12756  -0.11185
 Alpha virt. eigenvalues --   -0.10085  -0.09242  -0.08080  -0.07883  -0.07479
 Alpha virt. eigenvalues --   -0.07217  -0.07124  -0.05646  -0.05582  -0.05342

 Mulliken charges:
               1
     1  C    0.080520
     2  C   -0.384200
     3  C   -0.480542
     4  C    0.139789
     5  C    0.132340
     6  C   -0.429910
     7  C   -0.422867
     8  C    0.048921
     9  C   -0.325376
    10  C    0.038823
    11  C   -0.499424
    12  C    0.471061
    13  C   -0.539990
    14  C    0.551609
    15  H    0.234232
    16  H    0.262383
    17  H    0.247085
    18  H    0.239043
    19  H    0.186036
    20  H    0.210338
    21  H    0.250291
    22  H    0.250818
    23  H    0.238375
    24  H    0.244869
    25  H    0.255775
 Sum of Mulliken charges =   1.00000

 Dipole moment (field-independent basis, Debye):
    X=             -0.7565    Y=              0.1802    Z=             -0.0102  Tot=              0.7777
 Quadrupole moment (field-independent basis, Debye-Ang):
   XX=            -30.9566   YY=            -56.3239   ZZ=            -84.1443
   XY=             -0.7633   XZ=             -0.0097   YZ=              0.1129

 Normal termination of Gaussian 16 at Mon Jul 25 20:08:00 2022.
