 Gaussian 16, Revision C.01,
 Gaussian 16:  ES64L-G16RevC.01  3-Jul-2019

 ---------------------------------------------------------------
 #n M062X/6-311++G(d,p) TD(NStates=1) EmpiricalDispersion=GD3 SP
 ---------------------------------------------------------------

 -----
 SP_-2
 -----
 Symbolic Z-matrix:
 Charge =  1 Multiplicity = 1

                         Standard orientation:
 ---------------------------------------------------------------------
 Center     Atomic      Atomic             Coordinates (Angstroms)
 Number     Number       Type             X           Y           Z
 ---------------------------------------------------------------------
      1          6           0       -2.466993   -1.365927    0.000068
      2          6           0       -3.688947   -0.690777   -0.004915
      3          6           0       -3.697891    0.695092    0.001245
      4          6           0       -2.490510    1.402165   -0.001629
      5          6           0        2.436595    1.412530   -0.001650
      6          6           0        3.670550    0.732218    0.001310
      7          6           0        3.714687   -0.652977   -0.004847
      8          6           0        2.519102   -1.354432    0.000051
      9          6           0        0.027836   -1.453206    0.009646
     10          6           0       -0.027372    1.428970   -0.007543
     11          6           0       -1.249400   -0.675071   -0.000878
     12          6           0       -1.251767    0.732928    0.005380
     13          6           0        1.275333   -0.678718   -0.000929
     14          6           0        1.223775    0.728339    0.005326
     15          1           0       -2.441687   -2.446830   -0.004737
     16          1           0       -4.613662   -1.252249   -0.015398
     17          1           0       -4.633742    1.231826    0.011643
     18          1           0       -2.515656    2.490372    0.003208
     19          1           0       -0.048077    2.509861   -0.002739
     20          1           0        2.420277    2.488904    0.003135
     21          1           0        4.585006    1.312396    0.011876
     22          1           0        4.660075   -1.170626   -0.015161
     23          1           0        2.535286   -2.439511   -0.004771
     24          1           0        0.043084   -2.141605   -0.855022
     25          1           0        0.039108   -2.149323    0.864161
 ---------------------------------------------------------------------

 SCF Done:  E(RM062X) =  -539.758887019     A.U. after   15 cycles

 Excitation energies and oscillator strengths:

 Excited State   1:      Singlet-A      2.8067 eV  441.74 nm  f=0.0287  <S**2>=0.000
      47 -> 48         0.70302
 This state for optimization and/or second-order correction.
 Total Energy, E(TD-HF/TD-DFT) =  -539.655742589
 Copying the excited state density for this state as the 1-particle RhoCI density.

 The electronic state is 1-A.
 Alpha  occ. eigenvalues --  -10.77663 -10.73410 -10.73069 -10.72544 -10.72326
 Alpha  occ. eigenvalues --  -10.71759 -10.71354 -10.70982 -10.70981 -10.70662
 Alpha  occ. eigenvalues --  -10.70063 -10.69880 -10.69821 -10.69442  -1.16449
 Alpha  occ. eigenvalues --   -1.12466  -1.06952  -1.05729  -1.01311  -1.00221
 Alpha  occ. eigenvalues --   -0.95750  -0.91052  -0.86423  -0.85892  -0.83808
 Alpha  occ. eigenvalues --   -0.78405  -0.76015  -0.74416  -0.69576  -0.69244
 Alpha  occ. eigenvalues --   -0.68514  -0.68176  -0.68097  -0.64752  -0.64266
 Alpha  occ. eigenvalues --   -0.63072  -0.61827  -0.60133  -0.59554  -0.59083
 Alpha  occ. eigenvalues --   -0.56907  -0.55186  -0.54831  -0.52442  -0.46671
 Alpha  occ. eigenvalues --   -0.46093  -0.44413
 Alpha virt. eigenvalues --   -0.26092  -0.14673  -0.14098  -0.12770  -0.11180
 Alpha virt. eigenvalues --   -0.10086  -0.09233  -0.08028  -0.07928  -0.07477
 Alpha virt. eigenvalues --   -0.07208  -0.07139  -0.05644  -0.05581  -0.05334

 Mulliken charges:
               1
     1  C    0.090781
     2  C   -0.399895
     3  C   -0.460481
     4  C    0.063425
     5  C    0.064479
     6  C   -0.437916
     7  C   -0.419836
     8  C    0.076421
     9  C   -0.313676
    10  C    0.091035
    11  C   -0.589836
    12  C    0.588865
    13  C   -0.603153
    14  C    0.630859
    15  H    0.235460
    16  H    0.259364
    17  H    0.248122
    18  H    0.229945
    19  H    0.189222
    20  H    0.215754
    21  H    0.249591
    22  H    0.253527
    23  H    0.237701
    24  H    0.247362
    25  H    0.252877
 Sum of Mulliken charges =   1.00000

 Dipole moment (field-independent basis, Debye):
    X=             -0.3793    Y=              0.1860    Z=             -0.0051  Tot=              0.4225
 Quadrupole moment (field-independent basis, Debye-Ang):
   XX=            -31.0766   YY=            -56.2776   ZZ=            -84.1427
   XY=             -0.3828   XZ=             -0.0041   YZ=              0.0566

 Normal termination of Gaussian 16 at Mon Jul 25 20:16:05 2022.
