 Gaussian 16, Revision C.01,
 Gaussian 16:  ES64L-G16RevC.01  3-Jul-2019

 ---------------------------------------------------------
 #n M062X/cc-pvtz TD EmpiricalDispersion=GD3 Opt=(CalcAll)
 ---------------------------------------------------------

 -----
 Title
 -----
 Symbolic Z-matrix:
 Charge =  1 Multiplicity = 1

 SCF Done:  E(RM062X) =  -539.822308400     A.U. after   13 cycles
 Total Energy, E(TD-HF/TD-DFT) =  -539.705679811
 SCF Done:  E(RM062X) =  -539.754344862     A.U. after   15 cycles
 Total Energy, E(TD-HF/TD-DFT) =  -539.665369581
 SCF Done:  E(RM062X) =  -539.812046500     A.U. after   13 cycles
 Total Energy, E(TD-HF/TD-DFT) =  -539.711370908
 SCF Done:  E(RM062X) =  -539.814356737     A.U. after   13 cycles
 Total Energy, E(TD-HF/TD-DFT) =  -539.712191618
 SCF Done:  E(RM062X) =  -539.814010064     A.U. after   11 cycles
 Total Energy, E(TD-HF/TD-DFT) =  -539.712282490
 SCF Done:  E(RM062X) =  -539.814064913     A.U. after    9 cycles

 Excitation energies and oscillator strengths:

 Excited State   1:      Singlet-A      2.7696 eV  447.66 nm  f=0.0236  <S**2>=0.000
      47 -> 48         0.70369
 This state for optimization and/or second-order correction.
 Total Energy, E(TD-HF/TD-DFT) =  -539.712284714
 Copying the excited state density for this state as the 1-particle RhoCI density.

 Excited State   2:      Singlet-A      3.3080 eV  374.80 nm  f=0.0120  <S**2>=0.000
      45 -> 48         0.63150
      46 -> 48         0.30507

 Excited State   3:      Singlet-A      3.4863 eV  355.64 nm  f=0.5399  <S**2>=0.000
      45 -> 48         0.30740
      46 -> 48        -0.62709

 Optimization completed.
    -- Stationary point found.

                         Standard orientation:
 ---------------------------------------------------------------------
 Center     Atomic      Atomic             Coordinates (Angstroms)
 Number     Number       Type             X           Y           Z
 ---------------------------------------------------------------------
      1          6           0       -3.722537   -0.660219   -0.000016
      2          6           0       -2.515396   -1.346872   -0.000027
      3          6           0       -1.261609   -0.663377   -0.000025
      4          6           0       -1.222888    0.735021    0.000007
      5          6           0       -2.439933    1.410602    0.000058
      6          6           0       -3.685411    0.720672    0.000040
      7          6           0       -0.015645   -1.458277   -0.000055
      8          6           0        0.032257    1.428994   -0.000013
      9          6           0        1.251313    0.725380   -0.000053
     10          6           0        1.263026   -0.691166   -0.000035
     11          6           0        2.474600   -1.372531    0.000056
     12          1           0        2.474852   -2.455538    0.000128
     13          6           0        3.682997   -0.682376    0.000050
     14          6           0        3.683900    0.709574   -0.000003
     15          6           0        2.486472    1.404934   -0.000058
     16          1           0       -0.042318   -2.147272   -0.860683
     17          1           0       -4.661016   -1.193374   -0.000026
     18          1           0       -2.506978   -2.430232   -0.000051
     19          1           0       -2.446704    2.493437    0.000095
     20          1           0       -4.599856    1.297448    0.000076
     21          1           0        0.035477    2.510004    0.000018
     22          1           0        4.615621   -1.227614    0.000114
     23          1           0        4.619221    1.250826    0.000022
     24          1           0        2.487019    2.487099   -0.000094
     25          1           0       -0.042199   -2.146946    0.860847
 ---------------------------------------------------------------------

 The electronic state is 1-A.
 Alpha  occ. eigenvalues --  -10.77521 -10.73427 -10.72843 -10.72496 -10.72019
 Alpha  occ. eigenvalues --  -10.71507 -10.71449 -10.70956 -10.70860 -10.70396
 Alpha  occ. eigenvalues --  -10.69968 -10.69719 -10.69696 -10.69376  -1.16257
 Alpha  occ. eigenvalues --   -1.12270  -1.06773  -1.05563  -1.01149  -1.00070
 Alpha  occ. eigenvalues --   -0.95570  -0.90861  -0.86217  -0.85716  -0.83632
 Alpha  occ. eigenvalues --   -0.78215  -0.75792  -0.74178  -0.69435  -0.69086
 Alpha  occ. eigenvalues --   -0.68230  -0.68015  -0.67929  -0.64678  -0.64018
 Alpha  occ. eigenvalues --   -0.62675  -0.61576  -0.60161  -0.59472  -0.58921
 Alpha  occ. eigenvalues --   -0.56694  -0.55021  -0.54490  -0.52418  -0.46774
 Alpha  occ. eigenvalues --   -0.46034  -0.44214
 Alpha virt. eigenvalues --   -0.25975  -0.14401  -0.13953  -0.12486  -0.06834
 Alpha virt. eigenvalues --   -0.05520  -0.05351  -0.04092  -0.02659  -0.01625
 Alpha virt. eigenvalues --   -0.00189   0.00354   0.00589   0.01904   0.02332

 Mulliken charges:
               1
     1  C   -0.035720
     2  C   -0.099119
     3  C    0.095075
     4  C    0.062679
     5  C   -0.080783
     6  C   -0.117423
     7  C   -0.308612
     8  C   -0.066978
     9  C    0.048758
    10  C    0.108251
    11  C   -0.099623
    12  H    0.138147
    13  C   -0.024654
    14  C   -0.123636
    15  C   -0.043694
    16  H    0.203269
    17  H    0.148487
    18  H    0.136237
    19  H    0.129697
    20  H    0.142817
    21  H    0.160046
    22  H    0.147576
    23  H    0.142952
    24  H    0.132977
    25  H    0.203276
 Sum of Mulliken charges =   1.00000

 Dipole moment (field-independent basis, Debye):
    X=              0.5680    Y=              0.1935    Z=              0.0002  Tot=              0.6001
 Quadrupole moment (field-independent basis, Debye-Ang):
   XX=            -30.8923   YY=            -56.4221   ZZ=            -83.3712
   XY=              0.1423   XZ=              0.0004   YZ=             -0.0001

  Exact polarizability:     270.788      -0.096      68.984     190.522       0.190     464.936
 Approx polarizability:     336.321      -1.415     228.501       0.001      -0.001     102.933

                      1                      2                      3
                      A                      A                      A
 Frequencies --     55.2423               105.4697               189.1540
 Red. masses --      3.7903                 3.5837                 2.2022
 Frc consts  --      0.0068                 0.0235                 0.0464
 IR Inten    --      0.1704                 0.0205                 7.7684

                      4                      5                      6
                      A                      A                      A
 Frequencies --    223.9254               233.6710               278.8408
 Red. masses --      4.1272                 4.3970                 2.7630
 Frc consts  --      0.1219                 0.1415                 0.1266
 IR Inten    --      2.7282                14.4683                 2.7477

                      7                      8                      9
                      A                      A                      A
 Frequencies --    366.1893               368.9036               377.0709
 Red. masses --      6.2463                 2.4833                 6.3867
 Frc consts  --      0.4935                 0.1991                 0.5350
 IR Inten    --    835.5036                 7.2866                14.7404

                     10                     11                     12
                      A                      A                      A
 Frequencies --    421.4680               423.4041               447.9493
 Red. masses --      4.6304                 2.6851                 2.4184
 Frc consts  --      0.4846                 0.2836                 0.2859
 IR Inten    --   1623.6807                 8.1422                 3.5907

                     13                     14                     15
                      A                      A                      A
 Frequencies --    508.0808               551.7832               567.2315
 Red. masses --      2.5586                 2.3934                 6.8660
 Frc consts  --      0.3891                 0.4293                 1.3016
 IR Inten    --      3.9014                 0.3540               274.9992

                     16                     17                     18
                      A                      A                      A
 Frequencies --    611.3488               667.4098               696.3106
 Red. masses --      6.4447                 5.9500                 2.5678
 Frc consts  --      1.4191                 1.5615                 0.7335
 IR Inten    --      2.7891                 0.4308                10.3217

                     19                     20                     21
                      A                      A                      A
 Frequencies --    731.2322               749.4789               762.8739
 Red. masses --      1.2586                 5.4411                 1.2891
 Frc consts  --      0.3965                 1.8007                 0.4420
 IR Inten    --     11.4334                66.9536                 3.1354

                     22                     23                     24
                      A                      A                      A
 Frequencies --    791.9362               816.9083               875.4438
 Red. masses --      1.5009                 3.3655                 1.7939
 Frc consts  --      0.5546                 1.3233                 0.8100
 IR Inten    --     81.7434                45.3083                14.8256

                     25                     26                     27
                      A                      A                      A
 Frequencies --    892.8784               905.7105               907.5855
 Red. masses --      5.5803                 1.4547                 4.5781
 Frc consts  --      2.6211                 0.7031                 2.2218
 IR Inten    --     86.9851                 0.0969               178.6897

                     28                     29                     30
                      A                      A                      A
 Frequencies --    926.8503               991.4215              1002.0590
 Red. masses --      2.0941                 1.4361                 1.4528
 Frc consts  --      1.0599                 0.8317                 0.8595
 IR Inten    --      0.2214                 0.1214                 2.7949

                     31                     32                     33
                      A                      A                      A
 Frequencies --   1015.9044              1018.8654              1031.6514
 Red. masses --      1.5231                 2.3805                 1.4125
 Frc consts  --      0.9262                 1.4560                 0.8858
 IR Inten    --      1.7958              3100.6520                 0.0195

                     34                     35                     36
                      A                      A                      A
 Frequencies --   1065.5626              1098.4820              1107.0822
 Red. masses --      2.3692                 1.9150                 1.9703
 Frc consts  --      1.5849                 1.3615                 1.4228
 IR Inten    --    164.9048              1467.8702               167.5174

                     37                     38                     39
                      A                      A                      A
 Frequencies --   1149.5519              1161.3490              1182.7299
 Red. masses --      1.6055                 1.1347                 1.2233
 Frc consts  --      1.2500                 0.9017                 1.0082
 IR Inten    --     45.5367                 0.0183                16.8680

                     40                     41                     42
                      A                      A                      A
 Frequencies --   1192.6369              1205.9172              1226.2298
 Red. masses --      1.1539                 1.5391                 3.8638
 Frc consts  --      0.9670                 1.3187                 3.4230
 IR Inten    --     18.5260                 2.3256                32.2407

                     43                     44                     45
                      A                      A                      A
 Frequencies --   1253.8100              1287.3464              1315.0216
 Red. masses --      2.2050                 2.7893                 1.6309
 Frc consts  --      2.0423                 2.7236                 1.6617
 IR Inten    --    115.8702                43.1439                78.9453

                     46                     47                     48
                      A                      A                      A
 Frequencies --   1333.6514              1346.5120              1376.2421
 Red. masses --      2.1917                 6.5067                 2.0269
 Frc consts  --      2.2967                 6.9508                 2.2618
 IR Inten    --    675.5923                 0.5784                30.3248

                     49                     50                     51
                      A                      A                      A
 Frequencies --   1380.7211              1401.9292              1448.7455
 Red. masses --      1.6216                 1.8921                 2.0695
 Frc consts  --      1.8213                 2.1910                 2.5592
 IR Inten    --    288.7230               446.3969               668.1555

                     52                     53                     54
                      A                      A                      A
 Frequencies --   1465.4776              1511.3488              1523.1514
 Red. masses --      2.0415                 2.8627                 2.6330
 Frc consts  --      2.5833                 3.8526                 3.5990
 IR Inten    --    226.9615               456.1889                60.5195

                     55                     56                     57
                      A                      A                      A
 Frequencies --   1548.7172              1576.3039              1624.2090
 Red. masses --      2.8098                 3.7734                 5.8816
 Frc consts  --      3.9707                 5.5242                 9.1417
 IR Inten    --      3.1972               110.6613                 1.3162

                     58                     59                     60
                      A                      A                      A
 Frequencies --   1647.4765              2971.3535              2977.7439
 Red. masses --      6.1259                 1.0625                 1.0915
 Frc consts  --      9.7963                 5.5269                 5.7023
 IR Inten    --     20.1869               146.9245                 2.9236

                     61                     62                     63
                      A                      A                      A
 Frequencies --   3203.0815              3207.0689              3213.6304
 Red. masses --      1.0906                 1.0909                 1.0901
 Frc consts  --      6.5925                 6.6106                 6.6327
 IR Inten    --      5.4577                 2.5139                 0.1347

                     64                     65                     66
                      A                      A                      A
 Frequencies --   3214.5546              3228.6824              3229.2336
 Red. masses --      1.0914                 1.0907                 1.0924
 Frc consts  --      6.6449                 6.6989                 6.7118
 IR Inten    --      0.0623                 0.0595                 0.7373

                     67                     68                     69
                      A                      A                      A
 Frequencies --   3231.1977              3240.8321              3249.5963
 Red. masses --      1.0924                 1.0975                 1.0974
 Frc consts  --      6.7198                 6.7918                 6.8277
 IR Inten    --      1.2711                 7.9014                 0.7561

 - Thermochemistry -
 -------------------
 Temperature   298.150 Kelvin.  Pressure   1.00000 Atm.
 Atom     1 has atomic number  6 and mass  12.00000

 Molecular mass:   179.08608 amu.
 Principal axes and moments of inertia in atomic units:
                           1         2         3
     Eigenvalues --   845.425144061.732064896.49094
           X            1.00000   0.00009   0.00000
           Y           -0.00009   1.00000  -0.00000
           Z           -0.00000   0.00000   1.00000
 This molecule is an asymmetric top.
 Rotational symmetry number  1.
 Warning -- assumption of classical behavior for rotation
           may cause significant error
 Rotational temperatures (Kelvin)      0.10245     0.02132     0.01769
 Rotational constants (GHZ):           2.13471     0.44433     0.36858
 Zero-point vibrational energy     531808.5 (Joules/Mol)
                                  127.10527 (Kcal/Mol)
 Warning -- explicit consideration of  16 degrees of freedom as
           vibrations may cause significant error
 Vibrational temperatures:     79.48   151.75   272.15   322.18   336.20
          (Kelvin)            401.19   526.86   530.77   542.52   606.40
                              609.18   644.50   731.01   793.89   816.12
                              879.59   960.25  1001.84  1052.08  1078.33
                             1097.61  1139.42  1175.35  1259.57  1284.65
                             1303.12  1305.81  1333.53  1426.43  1441.74
                             1461.66  1465.92  1484.32  1533.11  1580.47
                             1592.84  1653.95  1670.92  1701.68  1715.94
                             1735.05  1764.27  1803.95  1852.20  1892.02
                             1918.83  1937.33  1980.11  1986.55  2017.06
                             2084.42  2108.50  2174.49  2191.48  2228.26
                             2267.95  2336.87  2370.35  4275.11  4284.31
                             4608.52  4614.26  4623.70  4625.03  4645.35
                             4646.15  4648.97  4662.83  4675.44

 Zero-point correction=                           0.202555 (Hartree/Particle)
 Thermal correction to Energy=                    0.213015
 Thermal correction to Enthalpy=                  0.213959
 Thermal correction to Gibbs Free Energy=         0.166542
 Sum of electronic and zero-point Energies=           -539.509730
 Sum of electronic and thermal Energies=              -539.499270
 Sum of electronic and thermal Enthalpies=            -539.498325
 Sum of electronic and thermal Free Energies=         -539.545743

                     E (Thermal)             CV                S
                      KCal/Mol        Cal/Mol-Kelvin    Cal/Mol-Kelvin
 Total                  133.669             43.620             99.799
 Electronic               0.000              0.000              0.000
 Translational            0.889              2.981             41.455
 Rotational               0.889              2.981             31.198
 Vibrational            131.892             37.659             27.146
 Vibration     1          0.596              1.975              4.620
 Vibration     2          0.605              1.945              3.351
 Vibration     3          0.633              1.855              2.236
 Vibration     4          0.649              1.805              1.927
 Vibration     5          0.654              1.789              1.851
 Vibration     6          0.679              1.713              1.541
 Vibration     7          0.739              1.542              1.096
 Vibration     8          0.741              1.536              1.084
 Vibration     9          0.748              1.519              1.051
 Vibration    10          0.784              1.424              0.887
 Vibration    11          0.786              1.419              0.880
 Vibration    12          0.807              1.365              0.802
 Vibration    13          0.863              1.232              0.638
 Vibration    14          0.907              1.136              0.540
 Vibration    15          0.923              1.102              0.510
 Vibration    16          0.970              1.008              0.431

 Normal termination of Gaussian 16 at Wed Jul 27 16:18:18 2022.
