 Gaussian 16, Revision C.01,
 Gaussian 16:  ES64L-G16RevC.01  3-Jul-2019

 ---------------------------------------------------------------
 #n M062X/6-311++G(d,p) TD(NStates=1) EmpiricalDispersion=GD3 SP
 ---------------------------------------------------------------

 ------
 SP_-75
 ------
 Symbolic Z-matrix:
 Charge =  1 Multiplicity = 1

                         Standard orientation:
 ---------------------------------------------------------------------
 Center     Atomic      Atomic             Coordinates (Angstroms)
 Number     Number       Type             X           Y           Z
 ---------------------------------------------------------------------
      1          6           0        0.024665    2.842602    0.000000
      2          6           0       -1.150756    3.588818    0.000000
      3          6           0       -2.358774    2.917510    0.000000
      4          6           0       -2.394038    1.504342    0.000000
      5          6           0       -0.080716   -2.844693    0.000000
      6          6           0        1.101190   -3.584638    0.000000
      7          6           0        2.329854   -2.940620    0.000000
      8          6           0        2.370953   -1.547549    0.000000
      9          6           0        1.272134    0.684545    0.000000
     10          6           0       -1.254355   -0.684235    0.000000
     11          6           0        0.000000    1.428323    0.000000
     12          6           0       -1.225651    0.743228    0.000000
     13          6           0        1.195979   -0.793894    0.000000
     14          6           0       -0.059627   -1.441706    0.000000
     15          1           0        0.984894    3.344360    0.000000
     16          1           0       -1.115220    4.667892    0.000000
     17          1           0       -3.291291    3.464908    0.000000
     18          1           0       -3.353364    1.002273    0.000000
     19          1           0       -2.208512   -1.192953    0.000000
     20          1           0       -1.035015   -3.355640    0.000000
     21          1           0        1.052750   -4.664653    0.000000
     22          1           0        3.247669   -3.510102    0.000000
     23          1           0        3.326148   -1.036689    0.000000
     24          1           0        1.883399    1.024204    0.857400
     25          1           0        1.883399    1.024204   -0.857400
 ---------------------------------------------------------------------

 SCF Done:  E(RM062X) =  -539.759598788     A.U. after   15 cycles

 Excitation energies and oscillator strengths:

 Excited State   1:      Singlet-A'     2.8080 eV  441.54 nm  f=0.0279  <S**2>=0.000
      47 -> 48         0.70410
 This state for optimization and/or second-order correction.
 Total Energy, E(TD-HF/TD-DFT) =  -539.656406119
 Copying the excited state density for this state as the 1-particle RhoCI density.

 The electronic state is 1-A'.
 Alpha  occ. eigenvalues --  -10.77644 -10.73331 -10.73043 -10.72532 -10.72299
 Alpha  occ. eigenvalues --  -10.71500 -10.71272 -10.71224 -10.70953 -10.70758
 Alpha  occ. eigenvalues --  -10.70035 -10.69905 -10.69699 -10.69534  -1.16501
 Alpha  occ. eigenvalues --   -1.12501  -1.06944  -1.05820  -1.01313  -1.00261
 Alpha  occ. eigenvalues --   -0.95759  -0.91075  -0.86427  -0.85919  -0.83831
 Alpha  occ. eigenvalues --   -0.78403  -0.76083  -0.74420  -0.69556  -0.69263
 Alpha  occ. eigenvalues --   -0.68505  -0.68204  -0.68086  -0.64802  -0.64298
 Alpha  occ. eigenvalues --   -0.63107  -0.61854  -0.60018  -0.59631  -0.59084
 Alpha  occ. eigenvalues --   -0.56927  -0.55212  -0.54848  -0.52432  -0.46710
 Alpha  occ. eigenvalues --   -0.46066  -0.44411
 Alpha virt. eigenvalues --   -0.26070  -0.14674  -0.14093  -0.12769  -0.11182
 Alpha virt. eigenvalues --   -0.10093  -0.09232  -0.07981  -0.07956  -0.07478
 Alpha virt. eigenvalues --   -0.07211  -0.07148  -0.05640  -0.05584  -0.05337

 Mulliken charges:
               1
     1  C    0.099289
     2  C   -0.408597
     3  C   -0.441218
     4  C    0.022396
     5  C    0.032885
     6  C   -0.438765
     7  C   -0.405110
     8  C    0.086729
     9  C   -0.313690
    10  C    0.103586
    11  C   -0.636276
    12  C    0.653747
    13  C   -0.646099
    14  C    0.670353
    15  H    0.236201
    16  H    0.255355
    17  H    0.248127
    18  H    0.221011
    19  H    0.190103
    20  H    0.222947
    21  H    0.249928
    22  H    0.257604
    23  H    0.237497
    24  H    0.250998
    25  H    0.250998
 Sum of Mulliken charges =   1.00000

 Dipole moment (field-independent basis, Debye):
    X=             -0.0265    Y=             -0.3316    Z=             -0.0000  Tot=              0.3326
 Quadrupole moment (field-independent basis, Debye-Ang):
   XX=            -50.7905   YY=            -36.6163   ZZ=            -84.1394
   XY=            -10.3546   XZ=              0.0000   YZ=             -0.0000

 Normal termination of Gaussian 16 at Wed Jul 27 10:22:00 2022.
