 Gaussian 16, Revision C.01,
 Gaussian 16:  ES64L-G16RevC.01  3-Jul-2019

 ---------------------------------------------------------------
 #n M062X/6-311++G(d,p) TD(NStates=1) EmpiricalDispersion=GD3 SP
 ---------------------------------------------------------------

 -----
 SP_75
 -----
 Symbolic Z-matrix:
 Charge =  1 Multiplicity = 1

                         Standard orientation:
 ---------------------------------------------------------------------
 Center     Atomic      Atomic             Coordinates (Angstroms)
 Number     Number       Type             X           Y           Z
 ---------------------------------------------------------------------
      1          6           0        1.359517    2.495555    0.000000
      2          6           0        0.671492    3.702930    0.000000
      3          6           0       -0.715283    3.684805    0.000000
      4          6           0       -1.407883    2.463355    0.000000
      5          6           0       -1.407883   -2.463345    0.000000
      6          6           0       -0.715283   -3.684795    0.000000
      7          6           0        0.671492   -3.702920    0.000000
      8          6           0        1.359517   -2.495545    0.000000
      9          6           0        1.460017   -0.000070    0.000000
     10          6           0       -1.429483    0.000005    0.000000
     11          6           0        0.677092    1.262330    0.000000
     12          6           0       -0.730333    1.236905    0.000000
     13          6           0        0.677092   -1.262320    0.000000
     14          6           0       -0.730333   -1.236895    0.000000
     15          1           0        2.442642    2.491405    0.000000
     16          1           0        1.210592    4.638530    0.000000
     17          1           0       -1.274258    4.609755    0.000000
     18          1           0       -2.490308    2.467055    0.000000
     19          1           0       -2.510433    0.000005    0.000000
     20          1           0       -2.490308   -2.467045    0.000000
     21          1           0       -1.274258   -4.609745    0.000000
     22          1           0        1.210592   -4.638520    0.000000
     23          1           0        2.442642   -2.491395    0.000000
     24          1           0        2.147317    0.000005    0.861250
     25          1           0        2.147317    0.000005   -0.861250
 ---------------------------------------------------------------------

 SCF Done:  E(RM062X) =  -539.760269748     A.U. after   15 cycles

 Excitation energies and oscillator strengths:

 Excited State   1:      Singlet-A'     2.8233 eV  439.15 nm  f=0.0284  <S**2>=0.000
      47 -> 48         0.70426
 This state for optimization and/or second-order correction.
 Total Energy, E(TD-HF/TD-DFT) =  -539.656515585
 Copying the excited state density for this state as the 1-particle RhoCI density.

 The electronic state is 1-A'.
 Alpha  occ. eigenvalues --  -10.77680 -10.73280 -10.73279 -10.72450 -10.72448
 Alpha  occ. eigenvalues --  -10.71373 -10.71373 -10.71001 -10.70998 -10.70998
 Alpha  occ. eigenvalues --  -10.69973 -10.69973 -10.69640 -10.69640  -1.16404
 Alpha  occ. eigenvalues --   -1.12441  -1.06946  -1.05665  -1.01313  -1.00139
 Alpha  occ. eigenvalues --   -0.95787  -0.91040  -0.86414  -0.85886  -0.83805
 Alpha  occ. eigenvalues --   -0.78392  -0.75991  -0.74414  -0.69578  -0.69235
 Alpha  occ. eigenvalues --   -0.68491  -0.68178  -0.68113  -0.64730  -0.64268
 Alpha  occ. eigenvalues --   -0.63006  -0.61863  -0.60047  -0.59662  -0.59099
 Alpha  occ. eigenvalues --   -0.56878  -0.55226  -0.54808  -0.52443  -0.46602
 Alpha  occ. eigenvalues --   -0.46057  -0.44523
 Alpha virt. eigenvalues --   -0.26103  -0.14666  -0.14098  -0.12777  -0.11177
 Alpha virt. eigenvalues --   -0.10081  -0.09230  -0.07983  -0.07978  -0.07475
 Alpha virt. eigenvalues --   -0.07198  -0.07142  -0.05645  -0.05579  -0.05329

 Mulliken charges:
               1
     1  C    0.091702
     2  C   -0.406042
     3  C   -0.440053
     4  C    0.005675
     5  C    0.005643
     6  C   -0.440055
     7  C   -0.406087
     8  C    0.091634
     9  C   -0.349911
    10  C    0.083970
    11  C   -0.630647
    12  C    0.703134
    13  C   -0.630720
    14  C    0.703178
    15  H    0.237587
    16  H    0.256200
    17  H    0.248815
    18  H    0.222040
    19  H    0.190593
    20  H    0.222039
    21  H    0.248814
    22  H    0.256200
    23  H    0.237589
    24  H    0.249352
    25  H    0.249352
 Sum of Mulliken charges =   1.00000

 Dipole moment (field-independent basis, Debye):
    X=             -0.1932    Y=              0.0000    Z=              0.0000  Tot=              0.1932
 Quadrupole moment (field-independent basis, Debye-Ang):
   XX=            -56.2716   YY=            -31.0834   ZZ=            -84.1435
   XY=              0.0001   XZ=              0.0000   YZ=             -0.0000

 Normal termination of Gaussian 16 at Wed Jul 27 12:10:02 2022.
