 Gaussian 16, Revision C.01,
 Gaussian 16:  ES64L-G16RevC.01  3-Jul-2019

 ---------------------------------------------------------------
 #n M062X/6-311++G(d,p) TD(NStates=1) EmpiricalDispersion=GD3 SP
 ---------------------------------------------------------------

 -------
 SP_-100
 -------
 Symbolic Z-matrix:
 Charge =  1 Multiplicity = 1

                         Standard orientation:
 ---------------------------------------------------------------------
 Center     Atomic      Atomic             Coordinates (Angstroms)
 Number     Number       Type             X           Y           Z
 ---------------------------------------------------------------------
      1          6           0       -2.363103   -1.547068    0.000000
      2          6           0       -2.312090   -2.939701    0.000000
      3          6           0       -1.081468   -3.590269    0.000000
      4          6           0        0.088642   -2.858472    0.000000
      5          6           0        2.378782    1.503147    0.000000
      6          6           0        2.345962    2.930843    0.000000
      7          6           0        1.143414    3.605764    0.000000
      8          6           0       -0.025143    2.852904    0.000000
      9          6           0       -1.275869    0.689275    0.000000
     10          6           0        1.247631   -0.697507    0.000000
     11          6           0       -1.200544   -0.797080    0.000000
     12          6           0        0.060406   -1.448211    0.000000
     13          6           0        0.000000    1.423170    0.000000
     14          6           0        1.218723    0.739689    0.000000
     15          1           0       -3.322978   -1.045383    0.000000
     16          1           0       -3.228897   -3.511419    0.000000
     17          1           0       -1.040936   -4.670419    0.000000
     18          1           0        1.047190   -3.360895    0.000000
     19          1           0        2.203657   -1.202442    0.000000
     20          1           0        3.342197    1.008556    0.000000
     21          1           0        3.283036    3.470683    0.000000
     22          1           0        1.106580    4.684404    0.000000
     23          1           0       -0.989874    3.346241    0.000000
     24          1           0       -1.876014    1.040883    0.858775
     25          1           0       -1.876014    1.040883   -0.858775
 ---------------------------------------------------------------------

 SCF Done:  E(RM062X) =  -539.757443838     A.U. after   15 cycles

 Excitation energies and oscillator strengths:

 Excited State   1:      Singlet-A'     2.7457 eV  451.55 nm  f=0.0235  <S**2>=0.000
      47 -> 48         0.70369
 This state for optimization and/or second-order correction.
 Total Energy, E(TD-HF/TD-DFT) =  -539.656540019
 Copying the excited state density for this state as the 1-particle RhoCI density.

 The electronic state is 1-A'.
 Alpha  occ. eigenvalues --  -10.77624 -10.73575 -10.72856 -10.72703 -10.72121
 Alpha  occ. eigenvalues --  -10.71698 -10.71666 -10.71013 -10.70971 -10.70381
 Alpha  occ. eigenvalues --  -10.70134 -10.69829 -10.69809 -10.69419  -1.16505
 Alpha  occ. eigenvalues --   -1.12483  -1.06941  -1.05814  -1.01302  -1.00310
 Alpha  occ. eigenvalues --   -0.95683  -0.91053  -0.86432  -0.85904  -0.83807
 Alpha  occ. eigenvalues --   -0.78374  -0.76095  -0.74398  -0.69656  -0.69283
 Alpha  occ. eigenvalues --   -0.68421  -0.68143  -0.68090  -0.65007  -0.64260
 Alpha  occ. eigenvalues --   -0.62926  -0.61754  -0.60244  -0.59437  -0.59119
 Alpha  occ. eigenvalues --   -0.56929  -0.55247  -0.54711  -0.52437  -0.46953
 Alpha  occ. eigenvalues --   -0.46098  -0.44150
 Alpha virt. eigenvalues --   -0.26088  -0.14670  -0.14087  -0.12767  -0.11185
 Alpha virt. eigenvalues --   -0.10092  -0.09242  -0.07973  -0.07947  -0.07480
 Alpha virt. eigenvalues --   -0.07210  -0.07143  -0.05643  -0.05580  -0.05342

 Mulliken charges:
               1
     1  C    0.078868
     2  C   -0.403184
     3  C   -0.435940
     4  C    0.030818
     5  C    0.006287
     6  C   -0.442844
     7  C   -0.411360
     8  C    0.108840
     9  C   -0.329545
    10  C    0.093930
    11  C   -0.651333
    12  C    0.697370
    13  C   -0.621824
    14  C    0.659869
    15  H    0.238810
    16  H    0.259186
    17  H    0.251194
    18  H    0.224376
    19  H    0.189928
    20  H    0.219692
    21  H    0.246713
    22  H    0.253554
    23  H    0.235606
    24  H    0.250496
    25  H    0.250496
 Sum of Mulliken charges =   1.00000

 Dipole moment (field-independent basis, Debye):
    X=             -0.1703    Y=             -0.7008    Z=              0.0000  Tot=              0.7212
 Quadrupole moment (field-independent basis, Debye-Ang):
   XX=            -51.0085   YY=            -36.3443   ZZ=            -84.1369
   XY=             10.2384   XZ=             -0.0000   YZ=              0.0000

 Normal termination of Gaussian 16 at Wed Jul 27 10:14:36 2022.
