 Gaussian 16, Revision C.01,
 Gaussian 16:  ES64L-G16RevC.01  3-Jul-2019

 ---------------------------------------------------------------
 #n M062X/6-311++G(d,p) TD(NStates=1) EmpiricalDispersion=GD3 SP
 ---------------------------------------------------------------

 ------
 SP_-50
 ------
 Symbolic Z-matrix:
 Charge =  1 Multiplicity = 1

                         Standard orientation:
 ---------------------------------------------------------------------
 Center     Atomic      Atomic             Coordinates (Angstroms)
 Number     Number       Type             X           Y           Z
 ---------------------------------------------------------------------
      1          6           0       -2.363441   -1.549069    0.000000
      2          6           0       -2.312180   -2.940745    0.000000
      3          6           0       -1.080808   -3.591288    0.000000
      4          6           0        0.088817   -2.858655    0.000000
      5          6           0        2.378978    1.503179    0.000000
      6          6           0        2.347075    2.930941    0.000000
      7          6           0        1.144106    3.606456    0.000000
      8          6           0       -0.023772    2.854298    0.000000
      9          6           0       -1.279746    0.691359    0.000000
     10          6           0        1.247817   -0.697583    0.000000
     11          6           0       -1.200648   -0.797211    0.000000
     12          6           0        0.060350   -1.447718    0.000000
     13          6           0        0.000000    1.423323    0.000000
     14          6           0        1.218256    0.739494    0.000000
     15          1           0       -3.323420   -1.047689    0.000000
     16          1           0       -3.228718   -3.512842    0.000000
     17          1           0       -1.039897   -4.671290    0.000000
     18          1           0        1.047517   -3.360686    0.000000
     19          1           0        2.203763   -1.202454    0.000000
     20          1           0        3.342169    1.008274    0.000000
     21          1           0        3.284221    3.470415    0.000000
     22          1           0        1.107701    4.685084    0.000000
     23          1           0       -0.988327    3.347861    0.000000
     24          1           0       -1.876917    1.041318    0.859875
     25          1           0       -1.876917    1.041318   -0.859875
 ---------------------------------------------------------------------

 SCF Done:  E(RM062X) =  -539.757512743     A.U. after   15 cycles

 Excitation energies and oscillator strengths:

 Excited State   1:      Singlet-A'     2.7451 eV  451.65 nm  f=0.0232  <S**2>=0.000
      47 -> 48         0.70370
 This state for optimization and/or second-order correction.
 Total Energy, E(TD-HF/TD-DFT) =  -539.656630641
 Copying the excited state density for this state as the 1-particle RhoCI density.

 The electronic state is 1-A'.
 Alpha  occ. eigenvalues --  -10.77633 -10.73602 -10.72881 -10.72712 -10.72129
 Alpha  occ. eigenvalues --  -10.71700 -10.71662 -10.71016 -10.70985 -10.70377
 Alpha  occ. eigenvalues --  -10.70136 -10.69835 -10.69809 -10.69427  -1.16479
 Alpha  occ. eigenvalues --   -1.12466  -1.06942  -1.05772  -1.01302  -1.00280
 Alpha  occ. eigenvalues --   -0.95686  -0.91042  -0.86429  -0.85895  -0.83799
 Alpha  occ. eigenvalues --   -0.78369  -0.76072  -0.74394  -0.69666  -0.69278
 Alpha  occ. eigenvalues --   -0.68412  -0.68133  -0.68098  -0.64997  -0.64250
 Alpha  occ. eigenvalues --   -0.62896  -0.61747  -0.60260  -0.59438  -0.59124
 Alpha  occ. eigenvalues --   -0.56916  -0.55250  -0.54696  -0.52440  -0.46940
 Alpha  occ. eigenvalues --   -0.46100  -0.44160
 Alpha virt. eigenvalues --   -0.26098  -0.14668  -0.14088  -0.12769  -0.11183
 Alpha virt. eigenvalues --   -0.10089  -0.09242  -0.07973  -0.07952  -0.07479
 Alpha virt. eigenvalues --   -0.07206  -0.07141  -0.05645  -0.05578  -0.05341

 Mulliken charges:
               1
     1  C    0.078764
     2  C   -0.403064
     3  C   -0.435643
     4  C    0.024053
     5  C    0.000620
     6  C   -0.443058
     7  C   -0.411009
     8  C    0.107719
     9  C   -0.340024
    10  C    0.087999
    11  C   -0.649384
    12  C    0.708021
    13  C   -0.617270
    14  C    0.672851
    15  H    0.239021
    16  H    0.259114
    17  H    0.251132
    18  H    0.224355
    19  H    0.190055
    20  H    0.219759
    21  H    0.246657
    22  H    0.253470
    23  H    0.235822
    24  H    0.250020
    25  H    0.250020
 Sum of Mulliken charges =   1.00000

 Dipole moment (field-independent basis, Debye):
    X=             -0.1673    Y=             -0.7027    Z=             -0.0000  Tot=              0.7223
 Quadrupole moment (field-independent basis, Debye-Ang):
   XX=            -51.0086   YY=            -36.3276   ZZ=            -84.1378
   XY=             10.2506   XZ=              0.0000   YZ=              0.0000

 Normal termination of Gaussian 16 at Wed Jul 27 10:50:34 2022.
