 Gaussian 16, Revision C.01,
 Gaussian 16:  ES64L-G16RevC.01  3-Jul-2019

 ---------------------------------------------------------------
 #n M062X/6-311++G(d,p) TD(NStates=1) EmpiricalDispersion=GD3 SP
 ---------------------------------------------------------------

 -------
 SP_-125
 -------
 Symbolic Z-matrix:
 Charge =  1 Multiplicity = 1

                         Standard orientation:
 ---------------------------------------------------------------------
 Center     Atomic      Atomic             Coordinates (Angstroms)
 Number     Number       Type             X           Y           Z
 ---------------------------------------------------------------------
      1          6           0       -2.365604   -1.546559    0.000000
      2          6           0       -2.317979   -2.939662    0.000000
      3          6           0       -1.088264   -3.588056    0.000000
      4          6           0        0.085934   -2.853816    0.000000
      5          6           0        2.383803    1.503544    0.000000
      6          6           0        2.349871    2.926374    0.000000
      7          6           0        1.145644    3.599890    0.000000
      8          6           0       -0.025431    2.849007    0.000000
      9          6           0       -1.273358    0.686950    0.000000
     10          6           0        1.249803   -0.693051    0.000000
     11          6           0       -1.198987   -0.795967    0.000000
     12          6           0        0.060162   -1.446203    0.000000
     13          6           0        0.000000    1.424839    0.000000
     14          6           0        1.221188    0.740940    0.000000
     15          1           0       -3.323888   -1.041712    0.000000
     16          1           0       -3.235213   -3.510507    0.000000
     17          1           0       -1.045224   -4.668206    0.000000
     18          1           0        1.043019   -3.359215    0.000000
     19          1           0        2.205234   -1.199269    0.000000
     20          1           0        3.345932    1.006562    0.000000
     21          1           0        3.285399    3.468852    0.000000
     22          1           0        1.109100    4.678678    0.000000
     23          1           0       -0.988724    3.345080    0.000000
     24          1           0       -1.878162    1.035178    0.857950
     25          1           0       -1.878162    1.035178   -0.857950
 ---------------------------------------------------------------------

 SCF Done:  E(RM062X) =  -539.758350546     A.U. after   15 cycles

 Excitation energies and oscillator strengths:

 Excited State   1:      Singlet-A'     2.7710 eV  447.44 nm  f=0.0251  <S**2>=0.000
      47 -> 48         0.70381
 This state for optimization and/or second-order correction.
 Total Energy, E(TD-HF/TD-DFT) =  -539.656519052
 Copying the excited state density for this state as the 1-particle RhoCI density.

 The electronic state is 1-A'.
 Alpha  occ. eigenvalues --  -10.77631 -10.73484 -10.72911 -10.72644 -10.72178
 Alpha  occ. eigenvalues --  -10.71633 -10.71535 -10.71083 -10.70961 -10.70507
 Alpha  occ. eigenvalues --  -10.70100 -10.69841 -10.69784 -10.69455  -1.16509
 Alpha  occ. eigenvalues --   -1.12494  -1.06942  -1.05826  -1.01307  -1.00296
 Alpha  occ. eigenvalues --   -0.95715  -0.91065  -0.86431  -0.85912  -0.83819
 Alpha  occ. eigenvalues --   -0.78387  -0.76095  -0.74408  -0.69613  -0.69276
 Alpha  occ. eigenvalues --   -0.68457  -0.68170  -0.68087  -0.64929  -0.64276
 Alpha  occ. eigenvalues --   -0.63004  -0.61799  -0.60160  -0.59503  -0.59104
 Alpha  occ. eigenvalues --   -0.56931  -0.55235  -0.54769  -0.52434  -0.46856
 Alpha  occ. eigenvalues --   -0.46086  -0.44252
 Alpha virt. eigenvalues --   -0.26078  -0.14673  -0.14090  -0.12768  -0.11184
 Alpha virt. eigenvalues --   -0.10093  -0.09238  -0.07977  -0.07950  -0.07479
 Alpha virt. eigenvalues --   -0.07211  -0.07146  -0.05642  -0.05582  -0.05341

 Mulliken charges:
               1
     1  C    0.081265
     2  C   -0.403805
     3  C   -0.437072
     4  C    0.033971
     5  C    0.013604
     6  C   -0.442242
     7  C   -0.410486
     8  C    0.105980
     9  C   -0.320477
    10  C    0.099374
    11  C   -0.650093
    12  C    0.684881
    13  C   -0.628435
    14  C    0.653044
    15  H    0.238297
    16  H    0.258684
    17  H    0.250793
    18  H    0.223912
    19  H    0.189975
    20  H    0.220098
    21  H    0.247203
    22  H    0.254183
    23  H    0.235719
    24  H    0.250815
    25  H    0.250815
 Sum of Mulliken charges =   1.00000

 Dipole moment (field-independent basis, Debye):
    X=             -0.1056    Y=             -0.5774    Z=              0.0000  Tot=              0.5869
 Quadrupole moment (field-independent basis, Debye-Ang):
   XX=            -50.9364   YY=            -36.4432   ZZ=            -84.1378
   XY=             10.2714   XZ=             -0.0000   YZ=              0.0000

 Normal termination of Gaussian 16 at Wed Jul 27 09:54:45 2022.
