 Gaussian 16, Revision C.01,
 Gaussian 16:  ES64L-G16RevC.01  3-Jul-2019

 ---------------------------------------------------------------
 #n M062X/6-311++G(d,p) TD(NStates=1) EmpiricalDispersion=GD3 SP
 ---------------------------------------------------------------

 -------
 SP_-125
 -------
 Symbolic Z-matrix:
 Charge =  1 Multiplicity = 1

                         Standard orientation:
 ---------------------------------------------------------------------
 Center     Atomic      Atomic             Coordinates (Angstroms)
 Number     Number       Type             X           Y           Z
 ---------------------------------------------------------------------
      1          6           0       -2.368272   -1.547053    0.000000
      2          6           0       -2.323910   -2.940142    0.000000
      3          6           0       -1.094722   -3.586347    0.000000
      4          6           0        0.083327   -2.849250    0.000000
      5          6           0        2.388920    1.503955    0.000000
      6          6           0        2.354326    2.921952    0.000000
      7          6           0        1.148204    3.594361    0.000000
      8          6           0       -0.025045    2.845810    0.000000
      9          6           0       -1.272789    0.685664    0.000000
     10          6           0        1.252079   -0.688634    0.000000
     11          6           0       -1.197480   -0.794925    0.000000
     12          6           0        0.059897   -1.443948    0.000000
     13          6           0        0.000000    1.426586    0.000000
     14          6           0        1.223420    0.742092    0.000000
     15          1           0       -3.325015   -1.039199    0.000000
     16          1           0       -3.241433   -3.510307    0.000000
     17          1           0       -1.048980   -4.666427    0.000000
     18          1           0        1.039021   -3.357423    0.000000
     19          1           0        2.206874   -1.196101    0.000000
     20          1           0        3.349650    1.004429    0.000000
     21          1           0        3.288345    3.466890    0.000000
     22          1           0        1.112163    4.673293    0.000000
     23          1           0       -0.986809    3.344725    0.000000
     24          1           0       -1.880773    1.029692    0.857675
     25          1           0       -1.880773    1.029692   -0.857675
 ---------------------------------------------------------------------

 SCF Done:  E(RM062X) =  -539.759084807     A.U. after   15 cycles

 Excitation energies and oscillator strengths:

 Excited State   1:      Singlet-A'     2.7920 eV  444.07 nm  f=0.0266  <S**2>=0.000
      47 -> 48         0.70395
 This state for optimization and/or second-order correction.
 Total Energy, E(TD-HF/TD-DFT) =  -539.656480877
 Copying the excited state density for this state as the 1-particle RhoCI density.

 The electronic state is 1-A'.
 Alpha  occ. eigenvalues --  -10.77639 -10.73408 -10.72978 -10.72589 -10.72239
 Alpha  occ. eigenvalues --  -10.71567 -10.71403 -10.71154 -10.70957 -10.70631
 Alpha  occ. eigenvalues --  -10.70067 -10.69873 -10.69741 -10.69494  -1.16503
 Alpha  occ. eigenvalues --   -1.12497  -1.06943  -1.05821  -1.01311  -1.00274
 Alpha  occ. eigenvalues --   -0.95740  -0.91070  -0.86429  -0.85916  -0.83825
 Alpha  occ. eigenvalues --   -0.78396  -0.76087  -0.74415  -0.69581  -0.69268
 Alpha  occ. eigenvalues --   -0.68484  -0.68189  -0.68086  -0.64858  -0.64287
 Alpha  occ. eigenvalues --   -0.63060  -0.61831  -0.60086  -0.59569  -0.59093
 Alpha  occ. eigenvalues --   -0.56928  -0.55223  -0.54813  -0.52433  -0.46772
 Alpha  occ. eigenvalues --   -0.46076  -0.44342
 Alpha virt. eigenvalues --   -0.26074  -0.14673  -0.14092  -0.12769  -0.11183
 Alpha virt. eigenvalues --   -0.10093  -0.09234  -0.07979  -0.07954  -0.07478
 Alpha virt. eigenvalues --   -0.07210  -0.07147  -0.05641  -0.05583  -0.05339

 Mulliken charges:
               1
     1  C    0.083911
     2  C   -0.404484
     3  C   -0.437962
     4  C    0.033467
     5  C    0.017999
     6  C   -0.441737
     7  C   -0.409520
     8  C    0.102704
     9  C   -0.316953
    10  C    0.101641
    11  C   -0.648190
    12  C    0.677767
    13  C   -0.632550
    14  C    0.653281
    15  H    0.237896
    16  H    0.258145
    17  H    0.250360
    18  H    0.223430
    19  H    0.190054
    20  H    0.220549
    21  H    0.247665
    22  H    0.254768
    23  H    0.235955
    24  H    0.250902
    25  H    0.250902
 Sum of Mulliken charges =   1.00000

 Dipole moment (field-independent basis, Debye):
    X=             -0.0394    Y=             -0.4546    Z=             -0.0000  Tot=              0.4563
 Quadrupole moment (field-independent basis, Debye-Ang):
   XX=            -50.8638   YY=            -36.5310   ZZ=            -84.1388
   XY=             10.3122   XZ=              0.0000   YZ=             -0.0000

 Normal termination of Gaussian 16 at Wed Jul 27 09:53:06 2022.
