 Gaussian 16, Revision C.01,
 Gaussian 16:  ES64L-G16RevC.01  3-Jul-2019

 ---------------------------------------------------------------
 #n M062X/6-311++G(d,p) TD(NStates=1) EmpiricalDispersion=GD3 SP
 ---------------------------------------------------------------

 ------
 SP_-25
 ------
 Symbolic Z-matrix:
 Charge =  1 Multiplicity = 1

                         Standard orientation:
 ---------------------------------------------------------------------
 Center     Atomic      Atomic             Coordinates (Angstroms)
 Number     Number       Type             X           Y           Z
 ---------------------------------------------------------------------
      1          6           0        0.024355    2.846498    0.000000
      2          6           0       -1.148556    3.594697    0.000000
      3          6           0       -2.354886    2.921988    0.000000
      4          6           0       -2.389019    1.503958    0.000000
      5          6           0       -0.083403   -2.849349    0.000000
      6          6           0        1.094405   -3.586861    0.000000
      7          6           0        2.323966   -2.940665    0.000000
      8          6           0        2.368450   -1.548054    0.000000
      9          6           0        1.274669    0.686816    0.000000
     10          6           0       -1.252166   -0.688682    0.000000
     11          6           0        0.000000    1.426656    0.000000
     12          6           0       -1.223185    0.741985    0.000000
     13          6           0        1.197537   -0.794994    0.000000
     14          6           0       -0.059862   -1.443709    0.000000
     15          1           0        0.986029    3.345529    0.000000
     16          1           0       -1.112732    4.673622    0.000000
     17          1           0       -3.288942    3.466739    0.000000
     18          1           0       -3.349635    1.004273    0.000000
     19          1           0       -2.206920   -1.196120    0.000000
     20          1           0       -1.039173   -3.357328    0.000000
     21          1           0        1.048477   -4.666867    0.000000
     22          1           0        3.241357   -3.511018    0.000000
     23          1           0        3.325244   -1.040350    0.000000
     24          1           0        1.881225    1.029908    0.858225
     25          1           0        1.881225    1.029908   -0.858225
 ---------------------------------------------------------------------

 SCF Done:  E(RM062X) =  -539.759137494     A.U. after   15 cycles

 Excitation energies and oscillator strengths:

 Excited State   1:      Singlet-A'     2.7920 eV  444.07 nm  f=0.0265  <S**2>=0.000
      47 -> 48         0.70395
 This state for optimization and/or second-order correction.
 Total Energy, E(TD-HF/TD-DFT) =  -539.656533264
 Copying the excited state density for this state as the 1-particle RhoCI density.

 The electronic state is 1-A'.
 Alpha  occ. eigenvalues --  -10.77643 -10.73422 -10.72990 -10.72593 -10.72243
 Alpha  occ. eigenvalues --  -10.71568 -10.71401 -10.71156 -10.70963 -10.70629
 Alpha  occ. eigenvalues --  -10.70068 -10.69873 -10.69745 -10.69498  -1.16490
 Alpha  occ. eigenvalues --   -1.12489  -1.06943  -1.05800  -1.01310  -1.00260
 Alpha  occ. eigenvalues --   -0.95742  -0.91065  -0.86427  -0.85911  -0.83821
 Alpha  occ. eigenvalues --   -0.78394  -0.76075  -0.74413  -0.69586  -0.69265
 Alpha  occ. eigenvalues --   -0.68480  -0.68184  -0.68090  -0.64854  -0.64282
 Alpha  occ. eigenvalues --   -0.63042  -0.61830  -0.60096  -0.59568  -0.59096
 Alpha  occ. eigenvalues --   -0.56922  -0.55226  -0.54804  -0.52435  -0.46764
 Alpha  occ. eigenvalues --   -0.46076  -0.44349
 Alpha virt. eigenvalues --   -0.26079  -0.14672  -0.14092  -0.12770  -0.11182
 Alpha virt. eigenvalues --   -0.10091  -0.09234  -0.07979  -0.07956  -0.07478
 Alpha virt. eigenvalues --   -0.07209  -0.07146  -0.05642  -0.05582  -0.05338

 Mulliken charges:
               1
     1  C    0.102573
     2  C   -0.409606
     3  C   -0.441805
     4  C    0.014754
     5  C    0.029957
     6  C   -0.437855
     7  C   -0.404564
     8  C    0.084227
     9  C   -0.322251
    10  C    0.098959
    11  C   -0.631297
    12  C    0.660300
    13  C   -0.647595
    14  C    0.683905
    15  H    0.236075
    16  H    0.254725
    17  H    0.247634
    18  H    0.220566
    19  H    0.190115
    20  H    0.223421
    21  H    0.250330
    22  H    0.258105
    23  H    0.238010
    24  H    0.250659
    25  H    0.250659
 Sum of Mulliken charges =   1.00000

 Dipole moment (field-independent basis, Debye):
    X=              0.0379    Y=             -0.4556    Z=              0.0000  Tot=              0.4572
 Quadrupole moment (field-independent basis, Debye-Ang):
   XX=            -50.8637   YY=            -36.5226   ZZ=            -84.1392
   XY=            -10.3185   XZ=              0.0000   YZ=              0.0000

 Normal termination of Gaussian 16 at Wed Jul 27 10:56:15 2022.
