 Gaussian 16, Revision C.01,
 Gaussian 16:  ES64L-G16RevC.01  3-Jul-2019

 ---------------------------------------------------------------
 #n M062X/6-311++G(d,p) TD(NStates=1) EmpiricalDispersion=GD3 SP
 ---------------------------------------------------------------

 ----
 SP_0
 ----
 Symbolic Z-matrix:
 Charge =  1 Multiplicity = 1

                         Standard orientation:
 ---------------------------------------------------------------------
 Center     Atomic      Atomic             Coordinates (Angstroms)
 Number     Number       Type             X           Y           Z
 ---------------------------------------------------------------------
      1          6           0       -2.363778   -1.551070    0.000000
      2          6           0       -2.312270   -2.941789    0.000000
      3          6           0       -1.080149   -3.592307    0.000000
      4          6           0        0.088992   -2.858837    0.000000
      5          6           0        2.379174    1.503211    0.000000
      6          6           0        2.348188    2.931039    0.000000
      7          6           0        1.144798    3.607148    0.000000
      8          6           0       -0.022401    2.855692    0.000000
      9          6           0       -1.283623    0.693443    0.000000
     10          6           0        1.248003   -0.697658    0.000000
     11          6           0       -1.200752   -0.797343    0.000000
     12          6           0        0.060295   -1.447225    0.000000
     13          6           0        0.000000    1.423477    0.000000
     14          6           0        1.217788    0.739300    0.000000
     15          1           0       -3.323863   -1.049995    0.000000
     16          1           0       -3.228538   -3.514266    0.000000
     17          1           0       -1.038858   -4.672161    0.000000
     18          1           0        1.047844   -3.360476    0.000000
     19          1           0        2.203869   -1.202466    0.000000
     20          1           0        3.342142    1.007992    0.000000
     21          1           0        3.285405    3.470146    0.000000
     22          1           0        1.108822    4.685764    0.000000
     23          1           0       -0.986779    3.349480    0.000000
     24          1           0       -1.877820    1.041754    0.860975
     25          1           0       -1.877820    1.041754   -0.860975
 ---------------------------------------------------------------------

 SCF Done:  E(RM062X) =  -539.757547483     A.U. after   15 cycles

 Excitation energies and oscillator strengths:

 Excited State   1:      Singlet-A'     2.7445 eV  451.76 nm  f=0.0229  <S**2>=0.000
      47 -> 48         0.70371
 This state for optimization and/or second-order correction.
 Total Energy, E(TD-HF/TD-DFT) =  -539.656689813
 Copying the excited state density for this state as the 1-particle RhoCI density.

 The electronic state is 1-A'.
 Alpha  occ. eigenvalues --  -10.77642 -10.73630 -10.72906 -10.72721 -10.72138
 Alpha  occ. eigenvalues --  -10.71702 -10.71658 -10.71019 -10.70999 -10.70373
 Alpha  occ. eigenvalues --  -10.70137 -10.69841 -10.69809 -10.69434  -1.16454
 Alpha  occ. eigenvalues --   -1.12448  -1.06942  -1.05731  -1.01301  -1.00251
 Alpha  occ. eigenvalues --   -0.95689  -0.91032  -0.86425  -0.85885  -0.83791
 Alpha  occ. eigenvalues --   -0.78365  -0.76048  -0.74391  -0.69675  -0.69273
 Alpha  occ. eigenvalues --   -0.68404  -0.68123  -0.68106  -0.64988  -0.64240
 Alpha  occ. eigenvalues --   -0.62866  -0.61739  -0.60278  -0.59438  -0.59129
 Alpha  occ. eigenvalues --   -0.56904  -0.55253  -0.54681  -0.52443  -0.46927
 Alpha  occ. eigenvalues --   -0.46102  -0.44170
 Alpha virt. eigenvalues --   -0.26107  -0.14665  -0.14089  -0.12771  -0.11182
 Alpha virt. eigenvalues --   -0.10086  -0.09243  -0.07973  -0.07957  -0.07478
 Alpha virt. eigenvalues --   -0.07203  -0.07139  -0.05646  -0.05576  -0.05339

 Mulliken charges:
               1
     1  C    0.078105
     2  C   -0.402682
     3  C   -0.435375
     4  C    0.017691
     5  C   -0.004641
     6  C   -0.443255
     7  C   -0.410417
     8  C    0.106100
     9  C   -0.350310
    10  C    0.081810
    11  C   -0.646485
    12  C    0.717803
    13  C   -0.611885
    14  C    0.684725
    15  H    0.239217
    16  H    0.259045
    17  H    0.251071
    18  H    0.224346
    19  H    0.190184
    20  H    0.219831
    21  H    0.246603
    22  H    0.253390
    23  H    0.236022
    24  H    0.249554
    25  H    0.249554
 Sum of Mulliken charges =   1.00000

 Dipole moment (field-independent basis, Debye):
    X=             -0.1642    Y=             -0.7046    Z=              0.0000  Tot=              0.7235
 Quadrupole moment (field-independent basis, Debye-Ang):
   XX=            -51.0087   YY=            -36.3112   ZZ=            -84.1387
   XY=             10.2626   XZ=             -0.0000   YZ=              0.0000

 Normal termination of Gaussian 16 at Wed Jul 27 11:25:29 2022.
