 Gaussian 16, Revision C.01,
 Gaussian 16:  ES64L-G16RevC.01  3-Jul-2019

 ---------------------------------------------------------------
 #n M062X/6-311++G(d,p) TD(NStates=1) EmpiricalDispersion=GD3 SP
 ---------------------------------------------------------------

 -------
 SP_-125
 -------
 Symbolic Z-matrix:
 Charge =  1 Multiplicity = 1

                         Standard orientation:
 ---------------------------------------------------------------------
 Center     Atomic      Atomic             Coordinates (Angstroms)
 Number     Number       Type             X           Y           Z
 ---------------------------------------------------------------------
      1          6           0        0.098925   -2.809541    0.000000
      2          6           0        1.324346   -3.475544    0.000000
      3          6           0        2.529956   -2.765375    0.000000
      4          6           0        2.515060   -1.409231    0.000000
      5          6           0       -0.060697    2.790408    0.000000
      6          6           0       -1.317096    3.518614    0.000000
      7          6           0       -2.517900    2.852394    0.000000
      8          6           0       -2.465636    1.465649    0.000000
      9          6           0       -1.256706   -0.730443    0.000000
     10          6           0        1.257026    0.682852    0.000000
     11          6           0        0.058311   -1.448986    0.000000
     12          6           0        1.279596   -0.705195    0.000000
     13          6           0       -1.208687    0.734535    0.000000
     14          6           0        0.000000    1.413365    0.000000
     15          1           0       -0.819446   -3.383536    0.000000
     16          1           0        1.340268   -4.556466    0.000000
     17          1           0        3.467438   -3.303632    0.000000
     18          1           0        3.434007   -0.838040    0.000000
     19          1           0        2.181334    1.243615    0.000000
     20          1           0        0.854894    3.369615    0.000000
     21          1           0       -1.277569    4.600006    0.000000
     22          1           0       -3.459634    3.378358    0.000000
     23          1           0       -3.379913    0.883380    0.000000
     24          1           0       -1.880184   -1.037154    0.859600
     25          1           0       -1.880184   -1.037154   -0.859600
 ---------------------------------------------------------------------

 SCF Done:  E(RM062X) =  -539.749331284     A.U. after   16 cycles

 Excitation energies and oscillator strengths:

 Excited State   1:      Singlet-A'     2.5875 eV  479.16 nm  f=0.0174  <S**2>=0.000
      47 -> 48         0.70343
 This state for optimization and/or second-order correction.
 Total Energy, E(TD-HF/TD-DFT) =  -539.654240813
 Copying the excited state density for this state as the 1-particle RhoCI density.

 The electronic state is 1-A'.
 Alpha  occ. eigenvalues --  -10.77522 -10.73933 -10.72943 -10.72506 -10.72347
 Alpha  occ. eigenvalues --  -10.71998 -10.71789 -10.70988 -10.70645 -10.70296
 Alpha  occ. eigenvalues --  -10.70030 -10.69798 -10.69646 -10.69221  -1.16615
 Alpha  occ. eigenvalues --   -1.12481  -1.06934  -1.05946  -1.01269  -1.00559
 Alpha  occ. eigenvalues --   -0.95440  -0.91009  -0.86458  -0.85885  -0.83754
 Alpha  occ. eigenvalues --   -0.78289  -0.76214  -0.74341  -0.69903  -0.69361
 Alpha  occ. eigenvalues --   -0.68204  -0.68081  -0.68001  -0.65504  -0.64225
 Alpha  occ. eigenvalues --   -0.62627  -0.61414  -0.60627  -0.59194  -0.59100
 Alpha  occ. eigenvalues --   -0.56969  -0.55267  -0.54394  -0.52441  -0.47651
 Alpha  occ. eigenvalues --   -0.46142  -0.43455
 Alpha virt. eigenvalues --   -0.26115  -0.14666  -0.14061  -0.12751  -0.11199
 Alpha virt. eigenvalues --   -0.10100  -0.09277  -0.07946  -0.07897  -0.07490
 Alpha virt. eigenvalues --   -0.07219  -0.07129  -0.05648  -0.05570  -0.05366

 Mulliken charges:
               1
     1  C    0.067082
     2  C   -0.399687
     3  C   -0.429946
     4  C    0.034114
     5  C   -0.010904
     6  C   -0.444810
     7  C   -0.415933
     8  C    0.124442
     9  C   -0.346656
    10  C    0.078311
    11  C   -0.659661
    12  C    0.720039
    13  C   -0.589677
    14  C    0.653350
    15  H    0.240718
    16  H    0.261886
    17  H    0.253365
    18  H    0.226716
    19  H    0.188907
    20  H    0.217717
    21  H    0.244472
    22  H    0.250716
    23  H    0.234476
    24  H    0.250481
    25  H    0.250481
 Sum of Mulliken charges =   1.00000

 Dipole moment (field-independent basis, Debye):
    X=              0.8521    Y=             -1.1086    Z=             -0.0000  Tot=              1.3982
 Quadrupole moment (field-independent basis, Debye-Ang):
   XX=            -48.9705   YY=            -38.2534   ZZ=            -84.1243
   XY=            -11.5123   XZ=             -0.0000   YZ=              0.0000

 Normal termination of Gaussian 16 at Wed Jul 27 10:04:09 2022.
