 Gaussian 16, Revision C.01,
 Gaussian 16:  ES64L-G16RevC.01  3-Jul-2019

 ---------------------------------------------------------------
 #n M062X/6-311++G(d,p) TD(NStates=1) EmpiricalDispersion=GD3 SP
 ---------------------------------------------------------------

 -----
 SP_75
 -----
 Symbolic Z-matrix:
 Charge =  1 Multiplicity = 1

                         Standard orientation:
 ---------------------------------------------------------------------
 Center     Atomic      Atomic             Coordinates (Angstroms)
 Number     Number       Type             X           Y           Z
 ---------------------------------------------------------------------
      1          6           0       -2.372309   -1.555552    0.000000
      2          6           0       -2.330202   -2.944797    0.000000
      3          6           0       -1.098539   -3.588716    0.000000
      4          6           0        0.081434   -2.845415    0.000000
      5          6           0        2.394820    1.504492    0.000000
      6          6           0        2.363220    2.917913    0.000000
      7          6           0        1.153520    3.591595    0.000000
      8          6           0       -0.019175    2.848175    0.000000
      9          6           0       -1.287711    0.692748    0.000000
     10          6           0        1.255106   -0.684520    0.000000
     11          6           0       -1.196385   -0.794413    0.000000
     12          6           0        0.059422   -1.439723    0.000000
     13          6           0        0.000000    1.428948    0.000000
     14          6           0        1.223782    0.742472    0.000000
     15          1           0       -3.327930   -1.045913    0.000000
     16          1           0       -3.246942   -3.515805    0.000000
     17          1           0       -1.048574   -4.668141    0.000000
     18          1           0        1.036347   -3.354788    0.000000
     19          1           0        2.208947   -1.192981    0.000000
     20          1           0        3.353252    1.001174    0.000000
     21          1           0        3.296014    3.463849    0.000000
     22          1           0        1.119695    4.670618    0.000000
     23          1           0       -0.978698    3.350828    0.000000
     24          1           0       -1.887005    1.025955    0.861800
     25          1           0       -1.887005    1.025955   -0.861800
 ---------------------------------------------------------------------

 SCF Done:  E(RM062X) =  -539.759812903     A.U. after   15 cycles

 Excitation energies and oscillator strengths:

 Excited State   1:      Singlet-A'     2.8088 eV  441.42 nm  f=0.0270  <S**2>=0.000
      47 -> 48         0.70410
 This state for optimization and/or second-order correction.
 Total Energy, E(TD-HF/TD-DFT) =  -539.656591977
 Copying the excited state density for this state as the 1-particle RhoCI density.

 The electronic state is 1-A'.
 Alpha  occ. eigenvalues --  -10.77680 -10.73438 -10.73146 -10.72567 -10.72334
 Alpha  occ. eigenvalues --  -10.71510 -10.71256 -10.71236 -10.71008 -10.70741
 Alpha  occ. eigenvalues --  -10.70039 -10.69907 -10.69725 -10.69562  -1.16398
 Alpha  occ. eigenvalues --   -1.12433  -1.06946  -1.05653  -1.01311  -1.00142
 Alpha  occ. eigenvalues --   -0.95772  -0.91034  -0.86414  -0.85881  -0.83799
 Alpha  occ. eigenvalues --   -0.78385  -0.75988  -0.74409  -0.69601  -0.69239
 Alpha  occ. eigenvalues --   -0.68471  -0.68163  -0.68117  -0.64774  -0.64254
 Alpha  occ. eigenvalues --   -0.62960  -0.61841  -0.60112  -0.59607  -0.59107
 Alpha  occ. eigenvalues --   -0.56875  -0.55235  -0.54775  -0.52445  -0.46650
 Alpha  occ. eigenvalues --   -0.46069  -0.44465
 Alpha virt. eigenvalues --   -0.26109  -0.14664  -0.14097  -0.12777  -0.11176
 Alpha virt. eigenvalues --   -0.10080  -0.09232  -0.07980  -0.07977  -0.07475
 Alpha virt. eigenvalues --   -0.07197  -0.07140  -0.05646  -0.05578  -0.05330

 Mulliken charges:
               1
     1  C    0.084997
     2  C   -0.404353
     3  C   -0.438212
     4  C    0.007221
     5  C   -0.001449
     6  C   -0.441482
     7  C   -0.407417
     8  C    0.096035
     9  C   -0.355390
    10  C    0.080227
    11  C   -0.635448
    12  C    0.715679
    13  C   -0.621391
    14  C    0.702715
    15  H    0.238343
    16  H    0.257297
    17  H    0.249686
    18  H    0.222965
    19  H    0.190591
    20  H    0.221170
    21  H    0.247894
    22  H    0.255028
    23  H    0.237055
    24  H    0.249119
    25  H    0.249119
 Sum of Mulliken charges =   1.00000

 Dipole moment (field-independent basis, Debye):
    X=              0.0389    Y=             -0.3387    Z=              0.0000  Tot=              0.3409
 Quadrupole moment (field-independent basis, Debye-Ang):
   XX=            -50.7913   YY=            -36.5495   ZZ=            -84.1431
   XY=             10.4027   XZ=             -0.0000   YZ=             -0.0000

 Normal termination of Gaussian 16 at Wed Jul 27 12:13:03 2022.
