 Gaussian 16, Revision C.01,
 Gaussian 16:  ES64L-G16RevC.01  3-Jul-2019

 ---------------------------------------------------------------
 #n M062X/6-311++G(d,p) TD(NStates=1) EmpiricalDispersion=GD3 SP
 ---------------------------------------------------------------

 -------
 SP_-125
 -------
 Symbolic Z-matrix:
 Charge =  1 Multiplicity = 1

                         Standard orientation:
 ---------------------------------------------------------------------
 Center     Atomic      Atomic             Coordinates (Angstroms)
 Number     Number       Type             X           Y           Z
 ---------------------------------------------------------------------
      1          6           0       -2.370940   -1.547548    0.000000
      2          6           0       -2.329836   -2.940618    0.000000
      3          6           0       -1.101169   -3.584631    0.000000
      4          6           0        0.080734   -2.844681    0.000000
      5          6           0        2.394038    1.504363    0.000000
      6          6           0        2.358768    2.917531    0.000000
      7          6           0        1.150747    3.588834    0.000000
      8          6           0       -0.024671    2.842613    0.000000
      9          6           0       -1.272225    0.684374    0.000000
     10          6           0        1.254364   -0.684219    0.000000
     11          6           0       -1.195969   -0.793888    0.000000
     12          6           0        0.059639   -1.441695    0.000000
     13          6           0        0.000000    1.428334    0.000000
     14          6           0        1.225654    0.743244    0.000000
     15          1           0       -3.326138   -1.036692    0.000000
     16          1           0       -3.247648   -3.510105    0.000000
     17          1           0       -1.052725   -4.664647    0.000000
     18          1           0        1.035035   -3.355625    0.000000
     19          1           0        2.208523   -1.192933    0.000000
     20          1           0        3.353365    1.002298    0.000000
     21          1           0        3.291283    3.464933    0.000000
     22          1           0        1.115207    4.667908    0.000000
     23          1           0       -0.984902    3.344367    0.000000
     24          1           0       -1.883398    1.024207    0.857400
     25          1           0       -1.883398    1.024207   -0.857400
 ---------------------------------------------------------------------

 SCF Done:  E(RM062X) =  -539.759599317     A.U. after   15 cycles

 Excitation energies and oscillator strengths:

 Excited State   1:      Singlet-A'     2.8080 eV  441.53 nm  f=0.0279  <S**2>=0.000
      47 -> 48         0.70410
 This state for optimization and/or second-order correction.
 Total Energy, E(TD-HF/TD-DFT) =  -539.656406037
 Copying the excited state density for this state as the 1-particle RhoCI density.

 The electronic state is 1-A'.
 Alpha  occ. eigenvalues --  -10.77644 -10.73330 -10.73044 -10.72532 -10.72298
 Alpha  occ. eigenvalues --  -10.71500 -10.71272 -10.71224 -10.70953 -10.70758
 Alpha  occ. eigenvalues --  -10.70035 -10.69905 -10.69699 -10.69534  -1.16501
 Alpha  occ. eigenvalues --   -1.12501  -1.06944  -1.05820  -1.01313  -1.00261
 Alpha  occ. eigenvalues --   -0.95759  -0.91075  -0.86427  -0.85919  -0.83831
 Alpha  occ. eigenvalues --   -0.78403  -0.76083  -0.74420  -0.69556  -0.69263
 Alpha  occ. eigenvalues --   -0.68505  -0.68204  -0.68086  -0.64802  -0.64298
 Alpha  occ. eigenvalues --   -0.63107  -0.61854  -0.60017  -0.59632  -0.59084
 Alpha  occ. eigenvalues --   -0.56927  -0.55211  -0.54849  -0.52432  -0.46710
 Alpha  occ. eigenvalues --   -0.46066  -0.44411
 Alpha virt. eigenvalues --   -0.26070  -0.14674  -0.14093  -0.12769  -0.11182
 Alpha virt. eigenvalues --   -0.10093  -0.09232  -0.07981  -0.07956  -0.07478
 Alpha virt. eigenvalues --   -0.07211  -0.07148  -0.05640  -0.05584  -0.05337

 Mulliken charges:
               1
     1  C    0.086641
     2  C   -0.405174
     3  C   -0.438766
     4  C    0.032839
     5  C    0.022438
     6  C   -0.441216
     7  C   -0.408536
     8  C    0.099381
     9  C   -0.313690
    10  C    0.103585
    11  C   -0.646225
    12  C    0.670419
    13  C   -0.636159
    14  C    0.653692
    15  H    0.237499
    16  H    0.257604
    17  H    0.249927
    18  H    0.222946
    19  H    0.190103
    20  H    0.221012
    21  H    0.248129
    22  H    0.255355
    23  H    0.236199
    24  H    0.250999
    25  H    0.250999
 Sum of Mulliken charges =   1.00000

 Dipole moment (field-independent basis, Debye):
    X=              0.0265    Y=             -0.3315    Z=             -0.0000  Tot=              0.3326
 Quadrupole moment (field-independent basis, Debye-Ang):
   XX=            -50.7907   YY=            -36.6161   ZZ=            -84.1394
   XY=             10.3545   XZ=              0.0000   YZ=             -0.0000

 Normal termination of Gaussian 16 at Wed Jul 27 09:51:21 2022.
