 Gaussian 16, Revision C.01,
 Gaussian 16:  ES64L-G16RevC.01  3-Jul-2019

 ---------------------------------------------------------------
 #n M062X/6-311++G(d,p) TD(NStates=1) EmpiricalDispersion=GD3 SP
 ---------------------------------------------------------------

 -----
 SP_50
 -----
 Symbolic Z-matrix:
 Charge =  1 Multiplicity = 1

                         Standard orientation:
 ---------------------------------------------------------------------
 Center     Atomic      Atomic             Coordinates (Angstroms)
 Number     Number       Type             X           Y           Z
 ---------------------------------------------------------------------
      1          6           0       -2.369465   -1.554056    0.000000
      2          6           0       -2.324228   -2.943797    0.000000
      3          6           0       -1.092418   -3.589919    0.000000
      4          6           0        0.083940   -2.849891    0.000000
      5          6           0        2.389606    1.504067    0.000000
      6          6           0        2.358221    2.922290    0.000000
      7          6           0        1.150628    3.596779    0.000000
      8          6           0       -0.020240    2.850680    0.000000
      9          6           0       -1.286345    0.692980    0.000000
     10          6           0        1.252728   -0.688897    0.000000
     11          6           0       -1.197843   -0.795384    0.000000
     12          6           0        0.059706   -1.442223    0.000000
     13          6           0        0.000000    1.427124    0.000000
     14          6           0        1.221783    0.741415    0.000000
     15          1           0       -3.326577   -1.047268    0.000000
     16          1           0       -3.240812   -3.515293    0.000000
     17          1           0       -1.045347   -4.669481    0.000000
     18          1           0        1.040168   -3.356690    0.000000
     19          1           0        2.207245   -1.196144    0.000000
     20          1           0        3.349552    1.003445    0.000000
     21          1           0        3.292487    3.465944    0.000000
     22          1           0        1.116089    4.675667    0.000000
     23          1           0       -0.981384    3.350383    0.000000
     24          1           0       -1.883931    1.031220    0.861525
     25          1           0       -1.883931    1.031220   -0.861525
 ---------------------------------------------------------------------

 SCF Done:  E(RM062X) =  -539.759277354     A.U. after   15 cycles

 Excitation energies and oscillator strengths:

 Excited State   1:      Singlet-A'     2.7918 eV  444.10 nm  f=0.0257  <S**2>=0.000
      47 -> 48         0.70396
 This state for optimization and/or second-order correction.
 Total Energy, E(TD-HF/TD-DFT) =  -539.656681169
 Copying the excited state density for this state as the 1-particle RhoCI density.

 The electronic state is 1-A'.
 Alpha  occ. eigenvalues --  -10.77670 -10.73503 -10.73066 -10.72620 -10.72270
 Alpha  occ. eigenvalues --  -10.71575 -10.71389 -10.71164 -10.71005 -10.70616
 Alpha  occ. eigenvalues --  -10.70072 -10.69875 -10.69764 -10.69519  -1.16413
 Alpha  occ. eigenvalues --   -1.12438  -1.06945  -1.05675  -1.01309  -1.00171
 Alpha  occ. eigenvalues --   -0.95752  -0.91034  -0.86417  -0.85883  -0.83797
 Alpha  occ. eigenvalues --   -0.78381  -0.76004  -0.74405  -0.69618  -0.69248
 Alpha  occ. eigenvalues --   -0.68455  -0.68154  -0.68113  -0.64830  -0.64250
 Alpha  occ. eigenvalues --   -0.62938  -0.61817  -0.60159  -0.59558  -0.59112
 Alpha  occ. eigenvalues --   -0.56883  -0.55240  -0.54753  -0.52444  -0.46721
 Alpha  occ. eigenvalues --   -0.46080  -0.44387
 Alpha virt. eigenvalues --   -0.26108  -0.14665  -0.14095  -0.12776  -0.11178
 Alpha virt. eigenvalues --   -0.10082  -0.09235  -0.07979  -0.07972  -0.07476
 Alpha virt. eigenvalues --   -0.07198  -0.07140  -0.05646  -0.05578  -0.05332

 Mulliken charges:
               1
     1  C    0.082710
     2  C   -0.403805
     3  C   -0.437297
     4  C    0.010723
     5  C   -0.002455
     6  C   -0.442142
     7  C   -0.408399
     8  C    0.099331
     9  C   -0.353458
    10  C    0.081060
    11  C   -0.639444
    12  C    0.716399
    13  C   -0.618463
    14  C    0.696802
    15  H    0.238631
    16  H    0.257882
    17  H    0.250148
    18  H    0.223419
    19  H    0.190485
    20  H    0.220720
    21  H    0.247463
    22  H    0.254480
    23  H    0.236703
    24  H    0.249254
    25  H    0.249254
 Sum of Mulliken charges =   1.00000

 Dipole moment (field-independent basis, Debye):
    X=             -0.0286    Y=             -0.4610    Z=              0.0000  Tot=              0.4619
 Quadrupole moment (field-independent basis, Debye-Ang):
   XX=            -50.8642   YY=            -36.4727   ZZ=            -84.1420
   XY=             10.3545   XZ=             -0.0000   YZ=              0.0000

 Normal termination of Gaussian 16 at Wed Jul 27 11:56:55 2022.
