 Gaussian 16, Revision C.01,
 Gaussian 16:  ES64L-G16RevC.01  3-Jul-2019

 ---------------------------------------------------------------
 #n M062X/6-311++G(d,p) TD(NStates=1) EmpiricalDispersion=GD3 SP
 ---------------------------------------------------------------

 -----
 SP_75
 -----
 Symbolic Z-matrix:
 Charge =  1 Multiplicity = 1

                         Standard orientation:
 ---------------------------------------------------------------------
 Center     Atomic      Atomic             Coordinates (Angstroms)
 Number     Number       Type             X           Y           Z
 ---------------------------------------------------------------------
      1          6           0        2.498568   -1.348699    0.000000
      2          6           0        3.702016   -0.653600    0.000000
      3          6           0        3.680747    0.734596    0.000000
      4          6           0        2.461236    1.420891    0.000000
      5          6           0       -2.465448    1.394982    0.000000
      6          6           0       -3.689057    0.696446    0.000000
      7          6           0       -3.704224   -0.689233    0.000000
      8          6           0       -2.493437   -1.370040    0.000000
      9          6           0        0.004157   -1.461113    0.000000
     10          6           0        0.000000    1.429546    0.000000
     11          6           0        1.266304   -0.673534    0.000000
     12          6           0        1.236219    0.735924    0.000000
     13          6           0       -1.258414   -0.680655    0.000000
     14          6           0       -1.237356    0.724600    0.000000
     15          1           0        2.501563   -2.431771    0.000000
     16          1           0        4.639945   -1.188864    0.000000
     17          1           0        4.605079    1.294433    0.000000
     18          1           0        2.458068    2.503237    0.000000
     19          1           0       -0.005161    2.510459    0.000000
     20          1           0       -2.475816    2.477422    0.000000
     21          1           0       -4.614485    1.254689    0.000000
     22          1           0       -4.637580   -1.231959    0.000000
     23          1           0       -2.482291   -2.453152    0.000000
     24          1           0        0.001408   -2.147582    0.861525
     25          1           0        0.001408   -2.147582   -0.861525
 ---------------------------------------------------------------------

 SCF Done:  E(RM062X) =  -539.760160603     A.U. after   15 cycles

 Excitation energies and oscillator strengths:

 Excited State   1:      Singlet-A'     2.8196 eV  439.72 nm  f=0.0280  <S**2>=0.000
      47 -> 48         0.70422
 This state for optimization and/or second-order correction.
 Total Energy, E(TD-HF/TD-DFT) =  -539.656540862
 Copying the excited state density for this state as the 1-particle RhoCI density.

 The electronic state is 1-A'.
 Alpha  occ. eigenvalues --  -10.77681 -10.73359 -10.73213 -10.72509 -10.72392
 Alpha  occ. eigenvalues --  -10.71442 -10.71305 -10.71126 -10.71005 -10.70868
 Alpha  occ. eigenvalues --  -10.70006 -10.69940 -10.69683 -10.69601  -1.16399
 Alpha  occ. eigenvalues --   -1.12437  -1.06946  -1.05657  -1.01313  -1.00136
 Alpha  occ. eigenvalues --   -0.95784  -0.91037  -0.86413  -0.85884  -0.83803
 Alpha  occ. eigenvalues --   -0.78390  -0.75987  -0.74412  -0.69585  -0.69236
 Alpha  occ. eigenvalues --   -0.68485  -0.68173  -0.68115  -0.64741  -0.64263
 Alpha  occ. eigenvalues --   -0.62990  -0.61858  -0.60068  -0.59645  -0.59102
 Alpha  occ. eigenvalues --   -0.56876  -0.55229  -0.54797  -0.52444  -0.46613
 Alpha  occ. eigenvalues --   -0.46060  -0.44510
 Alpha virt. eigenvalues --   -0.26106  -0.14665  -0.14098  -0.12777  -0.11177
 Alpha virt. eigenvalues --   -0.10081  -0.09231  -0.07982  -0.07978  -0.07475
 Alpha virt. eigenvalues --   -0.07197  -0.07142  -0.05646  -0.05579  -0.05329

 Mulliken charges:
               1
     1  C    0.088604
     2  C   -0.405122
     3  C   -0.439211
     4  C    0.006501
     5  C    0.001985
     6  C   -0.440828
     7  C   -0.406703
     8  C    0.094034
     9  C   -0.352564
    10  C    0.082244
    11  C   -0.632838
    12  C    0.708966
    13  C   -0.625929
    14  C    0.702425
    15  H    0.237958
    16  H    0.256750
    17  H    0.249248
    18  H    0.222502
    19  H    0.190609
    20  H    0.221600
    21  H    0.248352
    22  H    0.255613
    23  H    0.237318
    24  H    0.249242
    25  H    0.249242
 Sum of Mulliken charges =   1.00000

 Dipole moment (field-independent basis, Debye):
    X=              0.1393    Y=              0.1944    Z=              0.0000  Tot=              0.2392
 Quadrupole moment (field-independent basis, Debye-Ang):
   XX=            -31.0770   YY=            -56.2724   ZZ=            -84.1435
   XY=              0.1769   XZ=             -0.0000   YZ=              0.0000

 Normal termination of Gaussian 16 at Wed Jul 27 12:11:32 2022.
