 Gaussian 16, Revision C.01,
 Gaussian 16:  ES64L-G16RevC.01  3-Jul-2019

 ---------------------------------------------------------------
 #n M062X/6-311++G(d,p) TD(NStates=1) EmpiricalDispersion=GD3 SP
 ---------------------------------------------------------------

 ----
 SP_0
 ----
 Symbolic Z-matrix:
 Charge =  1 Multiplicity = 1

                         Standard orientation:
 ---------------------------------------------------------------------
 Center     Atomic      Atomic             Coordinates (Angstroms)
 Number     Number       Type             X           Y           Z
 ---------------------------------------------------------------------
      1          6           0        0.024742    2.849698    0.000000
      2          6           0       -1.145994    3.600227    0.000000
      3          6           0       -2.350431    2.926412    0.000000
      4          6           0       -2.383901    1.503550    0.000000
      5          6           0       -0.086013   -2.853914    0.000000
      6          6           0        1.087945   -3.588569    0.000000
      7          6           0        2.318034   -2.940185    0.000000
      8          6           0        2.365779   -1.547560    0.000000
      9          6           0        1.275250    0.688079    0.000000
     10          6           0       -1.249892   -0.693097    0.000000
     11          6           0        0.000000    1.424910    0.000000
     12          6           0       -1.220953    0.740834    0.000000
     13          6           0        1.199044   -0.796035    0.000000
     14          6           0       -0.060128   -1.445962    0.000000
     15          1           0        0.987946    3.345885    0.000000
     16          1           0       -1.109668    4.679010    0.000000
     17          1           0       -3.285995    3.468705    0.000000
     18          1           0       -3.345917    1.006409    0.000000
     19          1           0       -2.205282   -1.199285    0.000000
     20          1           0       -1.043172   -3.359118    0.000000
     21          1           0        1.044717   -4.668645    0.000000
     22          1           0        3.235134   -3.511218    0.000000
     23          1           0        3.324115   -1.042863    0.000000
     24          1           0        1.878614    1.035394    0.858500
     25          1           0        1.878614    1.035394   -0.858500
 ---------------------------------------------------------------------

 SCF Done:  E(RM062X) =  -539.758400089     A.U. after   15 cycles

 Excitation energies and oscillator strengths:

 Excited State   1:      Singlet-A'     2.7708 eV  447.46 nm  f=0.0250  <S**2>=0.000
      47 -> 48         0.70381
 This state for optimization and/or second-order correction.
 Total Energy, E(TD-HF/TD-DFT) =  -539.656573617
 Copying the excited state density for this state as the 1-particle RhoCI density.

 The electronic state is 1-A'.
 Alpha  occ. eigenvalues --  -10.77635 -10.73498 -10.72923 -10.72649 -10.72183
 Alpha  occ. eigenvalues --  -10.71634 -10.71533 -10.71085 -10.70967 -10.70505
 Alpha  occ. eigenvalues --  -10.70101 -10.69841 -10.69787 -10.69458  -1.16496
 Alpha  occ. eigenvalues --   -1.12486  -1.06942  -1.05805  -1.01307  -1.00281
 Alpha  occ. eigenvalues --   -0.95716  -0.91059  -0.86429  -0.85908  -0.83815
 Alpha  occ. eigenvalues --   -0.78385  -0.76083  -0.74406  -0.69618  -0.69273
 Alpha  occ. eigenvalues --   -0.68453  -0.68165  -0.68090  -0.64925  -0.64270
 Alpha  occ. eigenvalues --   -0.62987  -0.61797  -0.60169  -0.59503  -0.59106
 Alpha  occ. eigenvalues --   -0.56924  -0.55237  -0.54761  -0.52436  -0.46849
 Alpha  occ. eigenvalues --   -0.46087  -0.44258
 Alpha virt. eigenvalues --   -0.26083  -0.14671  -0.14090  -0.12769  -0.11183
 Alpha virt. eigenvalues --   -0.10092  -0.09238  -0.07977  -0.07952  -0.07479
 Alpha virt. eigenvalues --   -0.07209  -0.07145  -0.05642  -0.05581  -0.05340

 Mulliken charges:
               1
     1  C    0.105718
     2  C   -0.410503
     3  C   -0.442335
     4  C    0.010480
     5  C    0.030459
     6  C   -0.436940
     7  C   -0.403859
     8  C    0.081527
     9  C   -0.325772
    10  C    0.096613
    11  C   -0.626860
    12  C    0.660023
    13  C   -0.649478
    14  C    0.690760
    15  H    0.235837
    16  H    0.254139
    17  H    0.247173
    18  H    0.220122
    19  H    0.190036
    20  H    0.223900
    21  H    0.250763
    22  H    0.258646
    23  H    0.238408
    24  H    0.250572
    25  H    0.250572
 Sum of Mulliken charges =   1.00000

 Dipole moment (field-independent basis, Debye):
    X=              0.1040    Y=             -0.5784    Z=              0.0000  Tot=              0.5877
 Quadrupole moment (field-independent basis, Debye-Ang):
   XX=            -50.9363   YY=            -36.4348   ZZ=            -84.1382
   XY=            -10.2777   XZ=              0.0000   YZ=              0.0000

 Normal termination of Gaussian 16 at Wed Jul 27 11:13:17 2022.
