 Gaussian 16, Revision C.01,
 Gaussian 16:  ES64L-G16RevC.01  3-Jul-2019

 ---------------------------------------------------------------
 #n M062X/6-311++G(d,p) TD(NStates=1) EmpiricalDispersion=GD3 SP
 ---------------------------------------------------------------

 ------
 SP_-50
 ------
 Symbolic Z-matrix:
 Charge =  1 Multiplicity = 1

                         Standard orientation:
 ---------------------------------------------------------------------
 Center     Atomic      Atomic             Coordinates (Angstroms)
 Number     Number       Type             X           Y           Z
 ---------------------------------------------------------------------
      1          6           0       -1.361015   -2.490797    0.000000
      2          6           0       -0.672365   -3.700547    0.000000
      3          6           0        0.712785   -3.683297    0.000000
      4          6           0        1.407385   -2.463097    0.000000
      5          6           0        1.407385    2.463103    0.000000
      6          6           0        0.712785    3.683303    0.000000
      7          6           0       -0.672365    3.700553    0.000000
      8          6           0       -1.361015    2.490803    0.000000
      9          6           0       -1.449015   -0.000047    0.000000
     10          6           0        1.428985    0.000003    0.000000
     11          6           0       -0.676965   -1.261947    0.000000
     12          6           0        0.731085   -1.237897    0.000000
     13          6           0       -0.676965    1.261953    0.000000
     14          6           0        0.731085    1.237903    0.000000
     15          1           0       -2.444265   -2.485897    0.000000
     16          1           0       -1.212465   -4.635647    0.000000
     17          1           0        1.271135   -4.608997    0.000000
     18          1           0        2.489935   -2.467797    0.000000
     19          1           0        2.510185    0.000003    0.000000
     20          1           0        2.489935    2.467803    0.000000
     21          1           0        1.271135    4.609003    0.000000
     22          1           0       -1.212465    4.635653    0.000000
     23          1           0       -2.444265    2.485903    0.000000
     24          1           0       -2.144815    0.000003    0.858500
     25          1           0       -2.144815    0.000003   -0.858500
 ---------------------------------------------------------------------

 SCF Done:  E(RM062X) =  -539.760161399     A.U. after   15 cycles

 Excitation energies and oscillator strengths:

 Excited State   1:      Singlet-A'     2.8222 eV  439.31 nm  f=0.0289  <S**2>=0.000
      47 -> 48         0.70426
 This state for optimization and/or second-order correction.
 Total Energy, E(TD-HF/TD-DFT) =  -539.656445640
 Copying the excited state density for this state as the 1-particle RhoCI density.

 The electronic state is 1-A'.
 Alpha  occ. eigenvalues --  -10.77658 -10.73215 -10.73214 -10.72428 -10.72426
 Alpha  occ. eigenvalues --  -10.71367 -10.71366 -10.71008 -10.71008 -10.70967
 Alpha  occ. eigenvalues --  -10.69971 -10.69971 -10.69623 -10.69623  -1.16468
 Alpha  occ. eigenvalues --   -1.12483  -1.06945  -1.05770  -1.01314  -1.00214
 Alpha  occ. eigenvalues --   -0.95778  -0.91066  -0.86422  -0.85910  -0.83825
 Alpha  occ. eigenvalues --   -0.78403  -0.76051  -0.74421  -0.69549  -0.69251
 Alpha  occ. eigenvalues --   -0.68512  -0.68204  -0.68094  -0.64745  -0.64296
 Alpha  occ. eigenvalues --   -0.63101  -0.61870  -0.59973  -0.59692  -0.59085
 Alpha  occ. eigenvalues --   -0.56911  -0.55209  -0.54857  -0.52435  -0.46640
 Alpha  occ. eigenvalues --   -0.46057  -0.44487
 Alpha virt. eigenvalues --   -0.26079  -0.14672  -0.14095  -0.12772  -0.11181
 Alpha virt. eigenvalues --   -0.10089  -0.09230  -0.07983  -0.07965  -0.07476
 Alpha virt. eigenvalues --   -0.07207  -0.07147  -0.05642  -0.05583  -0.05334

 Mulliken charges:
               1
     1  C    0.093512
     2  C   -0.406878
     3  C   -0.440137
     4  C    0.020935
     5  C    0.020957
     6  C   -0.440135
     7  C   -0.406847
     8  C    0.093557
     9  C   -0.323836
    10  C    0.098825
    11  C   -0.639290
    12  C    0.674232
    13  C   -0.639232
    14  C    0.674202
    15  H    0.237065
    16  H    0.256397
    17  H    0.248962
    18  H    0.221978
    19  H    0.190290
    20  H    0.221978
    21  H    0.248963
    22  H    0.256397
    23  H    0.237064
    24  H    0.250521
    25  H    0.250521
 Sum of Mulliken charges =   1.00000

 Dipole moment (field-independent basis, Debye):
    X=              0.1843    Y=              0.0000    Z=              0.0000  Tot=              0.1843
 Quadrupole moment (field-independent basis, Debye-Ang):
   XX=            -56.2555   YY=            -31.1405   ZZ=            -84.1412
   XY=             -0.0000   XZ=             -0.0000   YZ=              0.0000

 Normal termination of Gaussian 16 at Wed Jul 27 10:43:18 2022.
