 Gaussian 16, Revision C.01,
 Gaussian 16:  ES64L-G16RevC.01  3-Jul-2019

 ---------------------------------------------------------------
 #n M062X/6-311++G(d,p) TD(NStates=1) EmpiricalDispersion=GD3 SP
 ---------------------------------------------------------------

 -----
 SP_25
 -----
 Symbolic Z-matrix:
 Charge =  1 Multiplicity = 1

                         Standard orientation:
 ---------------------------------------------------------------------
 Center     Atomic      Atomic             Coordinates (Angstroms)
 Number     Number       Type             X           Y           Z
 ---------------------------------------------------------------------
      1          6           0       -2.369294   -1.553056    0.000000
      2          6           0       -2.324182   -2.943275    0.000000
      3          6           0       -1.092747   -3.589408    0.000000
      4          6           0        0.083852   -2.849800    0.000000
      5          6           0        2.389508    1.504051    0.000000
      6          6           0        2.357665    2.922242    0.000000
      7          6           0        1.150282    3.596434    0.000000
      8          6           0       -0.020926    2.849984    0.000000
      9          6           0       -1.284409    0.691935    0.000000
     10          6           0        1.252636   -0.688860    0.000000
     11          6           0       -1.197791   -0.795319    0.000000
     12          6           0        0.059733   -1.442470    0.000000
     13          6           0        0.000000    1.427047    0.000000
     14          6           0        1.222017    0.741512    0.000000
     15          1           0       -3.326354   -1.046115    0.000000
     16          1           0       -3.240901   -3.514580    0.000000
     17          1           0       -1.045866   -4.669045    0.000000
     18          1           0        1.040004   -3.356795    0.000000
     19          1           0        2.207192   -1.196138    0.000000
     20          1           0        3.349566    1.003586    0.000000
     21          1           0        3.291895    3.466079    0.000000
     22          1           0        1.115528    4.675328    0.000000
     23          1           0       -0.982159    3.349575    0.000000
     24          1           0       -1.883480    1.031001    0.860975
     25          1           0       -1.883480    1.031001   -0.860975
 ---------------------------------------------------------------------

 SCF Done:  E(RM062X) =  -539.759275425     A.U. after   15 cycles

 Excitation energies and oscillator strengths:

 Excited State   1:      Singlet-A'     2.7919 eV  444.09 nm  f=0.0259  <S**2>=0.000
      47 -> 48         0.70396
 This state for optimization and/or second-order correction.
 Total Energy, E(TD-HF/TD-DFT) =  -539.656676194
 Copying the excited state density for this state as the 1-particle RhoCI density.

 The electronic state is 1-A'.
 Alpha  occ. eigenvalues --  -10.77666 -10.73489 -10.73054 -10.72616 -10.72266
 Alpha  occ. eigenvalues --  -10.71574 -10.71391 -10.71163 -10.70998 -10.70619
 Alpha  occ. eigenvalues --  -10.70072 -10.69874 -10.69761 -10.69516  -1.16426
 Alpha  occ. eigenvalues --   -1.12446  -1.06945  -1.05696  -1.01309  -1.00185
 Alpha  occ. eigenvalues --   -0.95750  -0.91039  -0.86419  -0.85888  -0.83801
 Alpha  occ. eigenvalues --   -0.78383  -0.76016  -0.74406  -0.69613  -0.69250
 Alpha  occ. eigenvalues --   -0.68459  -0.68159  -0.68109  -0.64834  -0.64255
 Alpha  occ. eigenvalues --   -0.62955  -0.61819  -0.60148  -0.59561  -0.59109
 Alpha  occ. eigenvalues --   -0.56890  -0.55238  -0.54762  -0.52443  -0.46728
 Alpha  occ. eigenvalues --   -0.46079  -0.44381
 Alpha virt. eigenvalues --   -0.26103  -0.14666  -0.14095  -0.12775  -0.11178
 Alpha virt. eigenvalues --   -0.10083  -0.09235  -0.07979  -0.07969  -0.07476
 Alpha virt. eigenvalues --   -0.07200  -0.07141  -0.05645  -0.05578  -0.05333

 Mulliken charges:
               1
     1  C    0.083287
     2  C   -0.404096
     3  C   -0.437377
     4  C    0.013673
     5  C    0.000166
     6  C   -0.442089
     7  C   -0.408744
     8  C    0.100194
     9  C   -0.348381
    10  C    0.084202
    11  C   -0.641388
    12  C    0.711561
    13  C   -0.621120
    14  C    0.691373
    15  H    0.238537
    16  H    0.257917
    17  H    0.250178
    18  H    0.223413
    19  H    0.190422
    20  H    0.220690
    21  H    0.247491
    22  H    0.254518
    23  H    0.236608
    24  H    0.249482
    25  H    0.249482
 Sum of Mulliken charges =   1.00000

 Dipole moment (field-independent basis, Debye):
    X=             -0.0301    Y=             -0.4601    Z=             -0.0000  Tot=              0.4611
 Quadrupole moment (field-independent basis, Debye-Ang):
   XX=            -50.8641   YY=            -36.4808   ZZ=            -84.1415
   XY=             10.3486   XZ=              0.0000   YZ=             -0.0000

 Normal termination of Gaussian 16 at Wed Jul 27 11:39:42 2022.
