 Gaussian 16, Revision C.01,
 Gaussian 16:  ES64L-G16RevC.01  3-Jul-2019

 ---------------------------------------------------------------
 #n M062X/6-311++G(d,p) TD(NStates=1) EmpiricalDispersion=GD3 SP
 ---------------------------------------------------------------

 -------
 SP_-125
 -------
 Symbolic Z-matrix:
 Charge =  1 Multiplicity = 1

                         Standard orientation:
 ---------------------------------------------------------------------
 Center     Atomic      Atomic             Coordinates (Angstroms)
 Number     Number       Type             X           Y           Z
 ---------------------------------------------------------------------
      1          6           0       -2.354922   -1.544600    0.000000
      2          6           0       -2.294222   -2.937711    0.000000
      3          6           0       -1.062338   -3.594831    0.000000
      4          6           0        0.096501   -2.872056    0.000000
      5          6           0        2.363324    1.501875    0.000000
      6          6           0        2.331935    2.944053    0.000000
      7          6           0        1.135241    3.622008    0.000000
      8          6           0       -0.027090    2.861813    0.000000
      9          6           0       -1.275678    0.692063    0.000000
     10          6           0        1.240802   -0.710737    0.000000
     11          6           0       -1.204992   -0.800192    0.000000
     12          6           0        0.061291   -1.455224    0.000000
     13          6           0       -0.000000    1.417861    0.000000
     14          6           0        1.212271    0.736322    0.000000
     15          1           0       -3.319339   -1.051821    0.000000
     16          1           0       -3.210277   -3.511297    0.000000
     17          1           0       -1.030076   -4.675314    0.000000
     18          1           0        1.059118   -3.366316    0.000000
     19          1           0        2.198772   -1.211929    0.000000
     20          1           0        3.331025    1.015108    0.000000
     21          1           0        3.273531    3.476743    0.000000
     22          1           0        1.096667    4.700225    0.000000
     23          1           0       -0.996470    3.346469    0.000000
     24          1           0       -1.867845    1.057135    0.859050
     25          1           0       -1.867845    1.057135   -0.859050
 ---------------------------------------------------------------------

 SCF Done:  E(RM062X) =  -539.753214252     A.U. after   16 cycles

 Excitation energies and oscillator strengths:

 Excited State   1:      Singlet-A'     2.6555 eV  466.90 nm  f=0.0195  <S**2>=0.000
      47 -> 48         0.70347
 This state for optimization and/or second-order correction.
 Total Energy, E(TD-HF/TD-DFT) =  -539.655626896
 Copying the excited state density for this state as the 1-particle RhoCI density.

 The electronic state is 1-A'.
 Alpha  occ. eigenvalues --  -10.77570 -10.73786 -10.72850 -10.72641 -10.72073
 Alpha  occ. eigenvalues --  -10.71923 -10.71882 -10.70978 -10.70793 -10.70231
 Alpha  occ. eigenvalues --  -10.70025 -10.69949 -10.69713 -10.69298  -1.16566
 Alpha  occ. eigenvalues --   -1.12484  -1.06937  -1.05888  -1.01285  -1.00450
 Alpha  occ. eigenvalues --   -0.95550  -0.91032  -0.86446  -0.85896  -0.83780
 Alpha  occ. eigenvalues --   -0.78330  -0.76162  -0.74366  -0.69793  -0.69328
 Alpha  occ. eigenvalues --   -0.68301  -0.68084  -0.68064  -0.65299  -0.64239
 Alpha  occ. eigenvalues --   -0.62746  -0.61575  -0.60469  -0.59233  -0.59164
 Alpha  occ. eigenvalues --   -0.56953  -0.55266  -0.54535  -0.52438  -0.47349
 Alpha  occ. eigenvalues --   -0.46125  -0.43751
 Alpha virt. eigenvalues --   -0.26101  -0.14668  -0.14074  -0.12759  -0.11193
 Alpha virt. eigenvalues --   -0.10097  -0.09261  -0.07959  -0.07920  -0.07485
 Alpha virt. eigenvalues --   -0.07215  -0.07136  -0.05646  -0.05575  -0.05355

 Mulliken charges:
               1
     1  C    0.071390
     2  C   -0.401133
     3  C   -0.432661
     4  C    0.034643
     5  C   -0.003189
     6  C   -0.444075
     7  C   -0.414157
     8  C    0.118413
     9  C   -0.337087
    10  C    0.086859
    11  C   -0.657095
    12  C    0.710345
    13  C   -0.605914
    14  C    0.653588
    15  H    0.239915
    16  H    0.260829
    17  H    0.252513
    18  H    0.225804
    19  H    0.189368
    20  H    0.218443
    21  H    0.245372
    22  H    0.251857
    23  H    0.234860
    24  H    0.250556
    25  H    0.250556
 Sum of Mulliken charges =   1.00000

 Dipole moment (field-independent basis, Debye):
    X=             -0.3715    Y=             -1.0641    Z=             -0.0000  Tot=              1.1271
 Quadrupole moment (field-independent basis, Debye-Ang):
   XX=            -51.2221   YY=            -36.0658   ZZ=            -84.1302
   XY=             10.1238   XZ=              0.0000   YZ=             -0.0000

 Normal termination of Gaussian 16 at Wed Jul 27 10:01:09 2022.
