 Gaussian 16, Revision C.01,
 Gaussian 16:  ES64L-G16RevC.01  3-Jul-2019

 ---------------------------------------------------------------
 #n M062X/6-311++G(d,p) TD(NStates=1) EmpiricalDispersion=GD3 SP
 ---------------------------------------------------------------

 ------
 SP_-50
 ------
 Symbolic Z-matrix:
 Charge =  1 Multiplicity = 1

                         Standard orientation:
 ---------------------------------------------------------------------
 Center     Atomic      Atomic             Coordinates (Angstroms)
 Number     Number       Type             X           Y           Z
 ---------------------------------------------------------------------
      1          6           0       -2.366112   -1.549561    0.000000
      2          6           0       -2.318115   -2.941228    0.000000
      3          6           0       -1.087276   -3.589586    0.000000
      4          6           0        0.086196   -2.854091    0.000000
      5          6           0        2.384096    1.503592    0.000000
      6          6           0        2.351541    2.926519    0.000000
      7          6           0        1.146682    3.600926    0.000000
      8          6           0       -0.023373    2.851097    0.000000
      9          6           0       -1.279170    0.690081    0.000000
     10          6           0        1.250082   -0.693164    0.000000
     11          6           0       -1.199143   -0.796164    0.000000
     12          6           0        0.060079   -1.445463    0.000000
     13          6           0        0.000000    1.425069    0.000000
     14          6           0        1.220487    0.740649    0.000000
     15          1           0       -3.324554   -1.045170    0.000000
     16          1           0       -3.234945   -3.512644    0.000000
     17          1           0       -1.043666   -4.669513    0.000000
     18          1           0        1.043510   -3.358901    0.000000
     19          1           0        2.205393   -1.199287    0.000000
     20          1           0        3.345890    1.006140    0.000000
     21          1           0        3.287174    3.468447    0.000000
     22          1           0        1.110782    4.679697    0.000000
     23          1           0       -0.986401    3.347507    0.000000
     24          1           0       -1.879515    1.035832    0.859600
     25          1           0       -1.879515    1.035832   -0.859600
 ---------------------------------------------------------------------

 SCF Done:  E(RM062X) =  -539.758475012     A.U. after   15 cycles

 Excitation energies and oscillator strengths:

 Excited State   1:      Singlet-A'     2.7706 eV  447.51 nm  f=0.0247  <S**2>=0.000
      47 -> 48         0.70381
 This state for optimization and/or second-order correction.
 Total Energy, E(TD-HF/TD-DFT) =  -539.656659032
 Copying the excited state density for this state as the 1-particle RhoCI density.

 The electronic state is 1-A'.
 Alpha  occ. eigenvalues --  -10.77644 -10.73526 -10.72948 -10.72658 -10.72191
 Alpha  occ. eigenvalues --  -10.71636 -10.71529 -10.71088 -10.70981 -10.70500
 Alpha  occ. eigenvalues --  -10.70103 -10.69842 -10.69793 -10.69466  -1.16470
 Alpha  occ. eigenvalues --   -1.12468  -1.06943  -1.05763  -1.01306  -1.00251
 Alpha  occ. eigenvalues --   -0.95719  -0.91049  -0.86426  -0.85898  -0.83807
 Alpha  occ. eigenvalues --   -0.78381  -0.76060  -0.74403  -0.69628  -0.69267
 Alpha  occ. eigenvalues --   -0.68445  -0.68155  -0.68098  -0.64916  -0.64260
 Alpha  occ. eigenvalues --   -0.62954  -0.61791  -0.60186  -0.59503  -0.59112
 Alpha  occ. eigenvalues --   -0.56912  -0.55241  -0.54746  -0.52439  -0.46835
 Alpha  occ. eigenvalues --   -0.46089  -0.44270
 Alpha virt. eigenvalues --   -0.26093  -0.14669  -0.14091  -0.12771  -0.11182
 Alpha virt. eigenvalues --   -0.10088  -0.09238  -0.07976  -0.07958  -0.07478
 Alpha virt. eigenvalues --   -0.07205  -0.07143  -0.05644  -0.05580  -0.05338

 Mulliken charges:
               1
     1  C    0.081471
     2  C   -0.403834
     3  C   -0.436687
     4  C    0.023649
     5  C    0.004589
     6  C   -0.442502
     7  C   -0.410231
     8  C    0.104917
     9  C   -0.336300
    10  C    0.090811
    11  C   -0.647681
    12  C    0.701985
    13  C   -0.622850
    14  C    0.673125
    15  H    0.238625
    16  H    0.258571
    17  H    0.250701
    18  H    0.223884
    19  H    0.190160
    20  H    0.220178
    21  H    0.247116
    22  H    0.254054
    23  H    0.236057
    24  H    0.250097
    25  H    0.250097
 Sum of Mulliken charges =   1.00000

 Dipole moment (field-independent basis, Debye):
    X=             -0.1009    Y=             -0.5802    Z=             -0.0000  Tot=              0.5890
 Quadrupole moment (field-independent basis, Debye-Ang):
   XX=            -50.9365   YY=            -36.4179   ZZ=            -84.1392
   XY=             10.2898   XZ=              0.0000   YZ=             -0.0000

 Normal termination of Gaussian 16 at Wed Jul 27 10:49:07 2022.
