 Gaussian 16, Revision C.01,
 Gaussian 16:  ES64L-G16RevC.01  3-Jul-2019

 ---------------------------------------------------------------
 #n M062X/6-311++G(d,p) TD(NStates=1) EmpiricalDispersion=GD3 SP
 ---------------------------------------------------------------

 -----
 SP_75
 -----
 Symbolic Z-matrix:
 Charge =  1 Multiplicity = 1

                         Standard orientation:
 ---------------------------------------------------------------------
 Center     Atomic      Atomic             Coordinates (Angstroms)
 Number     Number       Type             X           Y           Z
 ---------------------------------------------------------------------
      1          6           0        0.025972    2.859306    0.000000
      2          6           0       -1.138213    3.616822    0.000000
      3          6           0       -2.336994    2.939681    0.000000
      4          6           0       -2.368543    1.502310    0.000000
      5          6           0       -0.093923   -2.867593    0.000000
      6          6           0        1.068506   -3.593656    0.000000
      7          6           0        2.300213   -2.938726    0.000000
      8          6           0        2.357762   -1.546088    0.000000
      9          6           0        1.277020    0.691850    0.000000
     10          6           0       -1.243129   -0.706352    0.000000
     11          6           0        0.000000    1.419679    0.000000
     12          6           0       -1.214264    0.737378    0.000000
     13          6           0        1.203548   -0.799194    0.000000
     14          6           0       -0.060969   -1.452723    0.000000
     15          1           0        0.993747    3.346936    0.000000
     16          1           0       -1.100365    4.695176    0.000000
     17          1           0       -3.277104    3.474627    0.000000
     18          1           0       -3.334743    1.012825    0.000000
     19          1           0       -2.200425   -1.208774    0.000000
     20          1           0       -1.055237   -3.364448    0.000000
     21          1           0        1.033365   -4.673973    0.000000
     22          1           0        3.216431   -3.511813    0.000000
     23          1           0        3.320703   -1.050438    0.000000
     24          1           0        1.870857    1.051860    0.859325
     25          1           0        1.870857    1.051860   -0.859325
 ---------------------------------------------------------------------

 SCF Done:  E(RM062X) =  -539.754871286     A.U. after   15 cycles

 Excitation energies and oscillator strengths:

 Excited State   1:      Singlet-A'     2.6871 eV  461.41 nm  f=0.0206  <S**2>=0.000
      47 -> 48         0.70353
 This state for optimization and/or second-order correction.
 Total Energy, E(TD-HF/TD-DFT) =  -539.656122985
 Copying the excited state density for this state as the 1-particle RhoCI density.

 The electronic state is 1-A'.
 Alpha  occ. eigenvalues --  -10.77594 -10.73726 -10.72806 -10.72721 -10.71993
 Alpha  occ. eigenvalues --  -10.71935 -10.71823 -10.70980 -10.70868 -10.70200
 Alpha  occ. eigenvalues --  -10.70140 -10.69912 -10.69745 -10.69341  -1.16534
 Alpha  occ. eigenvalues --   -1.12478  -1.06938  -1.05845  -1.01291  -1.00388
 Alpha  occ. eigenvalues --   -0.95600  -0.91037  -0.86440  -0.85896  -0.83787
 Alpha  occ. eigenvalues --   -0.78345  -0.76129  -0.74376  -0.69746  -0.69310
 Alpha  occ. eigenvalues --   -0.68342  -0.68089  -0.68089  -0.65194  -0.64242
 Alpha  occ. eigenvalues --   -0.62798  -0.61639  -0.60398  -0.59302  -0.59149
 Alpha  occ. eigenvalues --   -0.56941  -0.55263  -0.54594  -0.52439  -0.47203
 Alpha  occ. eigenvalues --   -0.46117  -0.43895
 Alpha virt. eigenvalues --   -0.26099  -0.14668  -0.14079  -0.12763  -0.11189
 Alpha virt. eigenvalues --   -0.10094  -0.09254  -0.07964  -0.07932  -0.07483
 Alpha virt. eigenvalues --   -0.07212  -0.07138  -0.05645  -0.05576  -0.05350

 Mulliken charges:
               1
     1  C    0.114765
     2  C   -0.413086
     3  C   -0.443805
     4  C   -0.001876
     5  C    0.031196
     6  C   -0.433691
     7  C   -0.401769
     8  C    0.073836
     9  C   -0.337812
    10  C    0.087529
    11  C   -0.609990
    12  C    0.659976
    13  C   -0.654686
    14  C    0.709568
    15  H    0.235171
    16  H    0.252392
    17  H    0.245799
    18  H    0.218875
    19  H    0.189627
    20  H    0.225318
    21  H    0.252054
    22  H    0.260262
    23  H    0.239615
    24  H    0.250367
    25  H    0.250367
 Sum of Mulliken charges =   1.00000

 Dipole moment (field-independent basis, Debye):
    X=              0.3034    Y=             -0.9442    Z=              0.0000  Tot=              0.9918
 Quadrupole moment (field-independent basis, Debye-Ang):
   XX=            -51.1513   YY=            -36.1557   ZZ=            -84.1331
   XY=            -10.1646   XZ=              0.0000   YZ=              0.0000

 Normal termination of Gaussian 16 at Wed Jul 27 11:59:57 2022.
