 Gaussian 16, Revision C.01,
 Gaussian 16:  ES64L-G16RevC.01  3-Jul-2019

 ---------------------------------------------------------------
 #n M062X/6-311++G(d,p) TD(NStates=1) EmpiricalDispersion=GD3 SP
 ---------------------------------------------------------------

 ------
 SP_125
 ------
 Symbolic Z-matrix:
 Charge =  1 Multiplicity = 1

                         Standard orientation:
 ---------------------------------------------------------------------
 Center     Atomic      Atomic             Coordinates (Angstroms)
 Number     Number       Type             X           Y           Z
 ---------------------------------------------------------------------
      1          6           0        2.494413   -1.369722    0.000000
      2          6           0        3.704719   -0.689026    0.000000
      3          6           0        3.689365    0.696978    0.000000
      4          6           0        2.465499    1.395104    0.000000
      5          6           0       -2.461286    1.420968    0.000000
      6          6           0       -3.681039    0.735063    0.000000
      7          6           0       -3.702471   -0.653457    0.000000
      8          6           0       -2.499491   -1.348418    0.000000
      9          6           0       -0.004340   -1.463313    0.000000
     10          6           0        0.000000    1.429645    0.000000
     11          6           0        1.258507   -0.680669    0.000000
     12          6           0        1.237161    0.724462    0.000000
     13          6           0       -1.266360   -0.673571    0.000000
     14          6           0       -1.236013    0.735761    0.000000
     15          1           0        2.483427   -2.452810    0.000000
     16          1           0        4.638181   -1.231545    0.000000
     17          1           0        4.614639    1.255355    0.000000
     18          1           0        2.475656    2.477520    0.000000
     19          1           0        0.005151    2.510508    0.000000
     20          1           0       -2.457928    2.503288    0.000000
     21          1           0       -4.605226    1.295016    0.000000
     22          1           0       -4.640495   -1.188529    0.000000
     23          1           0       -2.502627   -2.431464    0.000000
     24          1           0       -0.001377   -2.148082    0.862075
     25          1           0       -0.001377   -2.148082   -0.862075
 ---------------------------------------------------------------------

 SCF Done:  E(RM062X) =  -539.760152922     A.U. after   15 cycles

 Excitation energies and oscillator strengths:

 Excited State   1:      Singlet-A'     2.8198 eV  439.70 nm  f=0.0279  <S**2>=0.000
      47 -> 48         0.70422
 This state for optimization and/or second-order correction.
 Total Energy, E(TD-HF/TD-DFT) =  -539.656528400
 Copying the excited state density for this state as the 1-particle RhoCI density.

 The electronic state is 1-A'.
 Alpha  occ. eigenvalues --  -10.77685 -10.73372 -10.73227 -10.72513 -10.72396
 Alpha  occ. eigenvalues --  -10.71443 -10.71306 -10.71124 -10.71013 -10.70866
 Alpha  occ. eigenvalues --  -10.70007 -10.69941 -10.69686 -10.69605  -1.16387
 Alpha  occ. eigenvalues --   -1.12428  -1.06946  -1.05636  -1.01312  -1.00121
 Alpha  occ. eigenvalues --   -0.95786  -0.91032  -0.86412  -0.85879  -0.83799
 Alpha  occ. eigenvalues --   -0.78388  -0.75975  -0.74411  -0.69591  -0.69233
 Alpha  occ. eigenvalues --   -0.68480  -0.68168  -0.68120  -0.64738  -0.64257
 Alpha  occ. eigenvalues --   -0.62971  -0.61856  -0.60082  -0.59640  -0.59104
 Alpha  occ. eigenvalues --   -0.56869  -0.55232  -0.54787  -0.52446  -0.46605
 Alpha  occ. eigenvalues --   -0.46060  -0.44517
 Alpha virt. eigenvalues --   -0.26111  -0.14664  -0.14099  -0.12778  -0.11176
 Alpha virt. eigenvalues --   -0.10079  -0.09231  -0.07982  -0.07981  -0.07474
 Alpha virt. eigenvalues --   -0.07196  -0.07141  -0.05646  -0.05578  -0.05328

 Mulliken charges:
               1
     1  C    0.093267
     2  C   -0.406268
     3  C   -0.440838
     4  C   -0.000623
     5  C    0.003698
     6  C   -0.439184
     7  C   -0.404829
     8  C    0.087743
     9  C   -0.357589
    10  C    0.079065
    11  C   -0.623247
    12  C    0.707387
    13  C   -0.630581
    14  C    0.713858
    15  H    0.237407
    16  H    0.255576
    17  H    0.248326
    18  H    0.221623
    19  H    0.190671
    20  H    0.222517
    21  H    0.249218
    22  H    0.256715
    23  H    0.238052
    24  H    0.249017
    25  H    0.249017
 Sum of Mulliken charges =   1.00000

 Dipole moment (field-independent basis, Debye):
    X=             -0.1393    Y=              0.1961    Z=             -0.0000  Tot=              0.2406
 Quadrupole moment (field-independent basis, Debye-Ang):
   XX=            -31.0658   YY=            -56.2756   ZZ=            -84.1439
   XY=             -0.1768   XZ=              0.0000   YZ=              0.0000

 Normal termination of Gaussian 16 at Wed Jul 27 12:45:00 2022.
