 Gaussian 16, Revision C.01,
 Gaussian 16:  ES64L-G16RevC.01  3-Jul-2019

 ---------------------------------------------------------------
 #n M062X/6-311++G(d,p) TD(NStates=1) EmpiricalDispersion=GD3 SP
 ---------------------------------------------------------------

 ------
 SP_125
 ------
 Symbolic Z-matrix:
 Charge =  1 Multiplicity = 1

                         Standard orientation:
 ---------------------------------------------------------------------
 Center     Atomic      Atomic             Coordinates (Angstroms)
 Number     Number       Type             X           Y           Z
 ---------------------------------------------------------------------
      1          6           0        0.022405    2.855699    0.000000
      2          6           0       -1.144792    3.607158    0.000000
      3          6           0       -2.348185    2.931052    0.000000
      4          6           0       -2.379174    1.503224    0.000000
      5          6           0       -0.089004   -2.858830    0.000000
      6          6           0        1.080136   -3.592303    0.000000
      7          6           0        2.312258   -2.941788    0.000000
      8          6           0        2.363771   -1.551069    0.000000
      9          6           0        1.283679    0.693336    0.000000
     10          6           0       -1.248008   -0.697648    0.000000
     11          6           0        0.000000    1.423484    0.000000
     12          6           0       -1.217790    0.739310    0.000000
     13          6           0        1.200746   -0.797339    0.000000
     14          6           0       -0.060302   -1.447218    0.000000
     15          1           0        0.986784    3.349484    0.000000
     16          1           0       -1.108814    4.685774    0.000000
     17          1           0       -3.285400    3.470162    0.000000
     18          1           0       -3.342143    1.008008    0.000000
     19          1           0       -2.203876   -1.202454    0.000000
     20          1           0       -1.047857   -3.360466    0.000000
     21          1           0        1.038842   -4.672157    0.000000
     22          1           0        3.228526   -3.514267    0.000000
     23          1           0        3.323856   -1.049996    0.000000
     24          1           0        1.877819    1.041756    0.860975
     25          1           0        1.877819    1.041756   -0.860975
 ---------------------------------------------------------------------

 SCF Done:  E(RM062X) =  -539.757548242     A.U. after   15 cycles

 Excitation energies and oscillator strengths:

 Excited State   1:      Singlet-A'     2.7445 eV  451.76 nm  f=0.0229  <S**2>=0.000
      47 -> 48         0.70371
 This state for optimization and/or second-order correction.
 Total Energy, E(TD-HF/TD-DFT) =  -539.656689861
 Copying the excited state density for this state as the 1-particle RhoCI density.

 The electronic state is 1-A'.
 Alpha  occ. eigenvalues --  -10.77642 -10.73630 -10.72906 -10.72721 -10.72138
 Alpha  occ. eigenvalues --  -10.71702 -10.71658 -10.71019 -10.70999 -10.70373
 Alpha  occ. eigenvalues --  -10.70137 -10.69841 -10.69810 -10.69434  -1.16454
 Alpha  occ. eigenvalues --   -1.12448  -1.06942  -1.05731  -1.01301  -1.00251
 Alpha  occ. eigenvalues --   -0.95689  -0.91032  -0.86425  -0.85885  -0.83791
 Alpha  occ. eigenvalues --   -0.78365  -0.76048  -0.74391  -0.69675  -0.69273
 Alpha  occ. eigenvalues --   -0.68403  -0.68123  -0.68106  -0.64988  -0.64240
 Alpha  occ. eigenvalues --   -0.62866  -0.61739  -0.60277  -0.59438  -0.59129
 Alpha  occ. eigenvalues --   -0.56904  -0.55252  -0.54681  -0.52443  -0.46926
 Alpha  occ. eigenvalues --   -0.46102  -0.44170
 Alpha virt. eigenvalues --   -0.26107  -0.14665  -0.14089  -0.12771  -0.11182
 Alpha virt. eigenvalues --   -0.10086  -0.09243  -0.07973  -0.07957  -0.07478
 Alpha virt. eigenvalues --   -0.07203  -0.07139  -0.05646  -0.05576  -0.05339

 Mulliken charges:
               1
     1  C    0.106159
     2  C   -0.410382
     3  C   -0.443252
     4  C   -0.004618
     5  C    0.017661
     6  C   -0.435375
     7  C   -0.402721
     8  C    0.078051
     9  C   -0.350311
    10  C    0.081810
    11  C   -0.611831
    12  C    0.684697
    13  C   -0.646554
    14  C    0.717848
    15  H    0.236020
    16  H    0.253389
    17  H    0.246604
    18  H    0.219831
    19  H    0.190184
    20  H    0.224345
    21  H    0.251070
    22  H    0.259045
    23  H    0.239219
    24  H    0.249556
    25  H    0.249556
 Sum of Mulliken charges =   1.00000

 Dipole moment (field-independent basis, Debye):
    X=              0.1642    Y=             -0.7046    Z=             -0.0000  Tot=              0.7235
 Quadrupole moment (field-independent basis, Debye-Ang):
   XX=            -51.0088   YY=            -36.3111   ZZ=            -84.1387
   XY=            -10.2625   XZ=              0.0000   YZ=             -0.0000

 Normal termination of Gaussian 16 at Wed Jul 27 12:38:51 2022.
