 Gaussian 16, Revision C.01,
 Gaussian 16:  ES64L-G16RevC.01  3-Jul-2019

 ---------------------------------------------------------------
 #n M062X/6-311++G(d,p) TD(NStates=1) EmpiricalDispersion=GD3 SP
 ---------------------------------------------------------------

 ------
 SP_100
 ------
 Symbolic Z-matrix:
 Charge =  1 Multiplicity = 1

                         Standard orientation:
 ---------------------------------------------------------------------
 Center     Atomic      Atomic             Coordinates (Angstroms)
 Number     Number       Type             X           Y           Z
 ---------------------------------------------------------------------
      1          6           0        0.020930    2.849991    0.000000
      2          6           0       -1.150276    3.596444    0.000000
      3          6           0       -2.357661    2.922255    0.000000
      4          6           0       -2.389508    1.504065    0.000000
      5          6           0       -0.083863   -2.849792    0.000000
      6          6           0        1.092734   -3.589404    0.000000
      7          6           0        2.324171   -2.943274    0.000000
      8          6           0        2.369287   -1.553055    0.000000
      9          6           0        1.284466    0.691828    0.000000
     10          6           0       -1.252641   -0.688850    0.000000
     11          6           0        0.000000    1.427054    0.000000
     12          6           0       -1.222019    0.741522    0.000000
     13          6           0        1.197785   -0.795315    0.000000
     14          6           0       -0.059740   -1.442463    0.000000
     15          1           0        0.982164    3.349579    0.000000
     16          1           0       -1.115519    4.675338    0.000000
     17          1           0       -3.291890    3.466095    0.000000
     18          1           0       -3.349567    1.003602    0.000000
     19          1           0       -2.207199   -1.196125    0.000000
     20          1           0       -1.040016   -3.356785    0.000000
     21          1           0        1.045850   -4.669041    0.000000
     22          1           0        3.240888   -3.514582    0.000000
     23          1           0        3.326347   -1.046117    0.000000
     24          1           0        1.883479    1.031003    0.860975
     25          1           0        1.883479    1.031003   -0.860975
 ---------------------------------------------------------------------

 SCF Done:  E(RM062X) =  -539.759275875     A.U. after   15 cycles

 Excitation energies and oscillator strengths:

 Excited State   1:      Singlet-A'     2.7919 eV  444.09 nm  f=0.0259  <S**2>=0.000
      47 -> 48         0.70396
 This state for optimization and/or second-order correction.
 Total Energy, E(TD-HF/TD-DFT) =  -539.656676134
 Copying the excited state density for this state as the 1-particle RhoCI density.

 The electronic state is 1-A'.
 Alpha  occ. eigenvalues --  -10.77666 -10.73489 -10.73054 -10.72616 -10.72265
 Alpha  occ. eigenvalues --  -10.71574 -10.71391 -10.71163 -10.70998 -10.70619
 Alpha  occ. eigenvalues --  -10.70071 -10.69875 -10.69761 -10.69516  -1.16426
 Alpha  occ. eigenvalues --   -1.12446  -1.06945  -1.05696  -1.01309  -1.00185
 Alpha  occ. eigenvalues --   -0.95750  -0.91039  -0.86419  -0.85888  -0.83801
 Alpha  occ. eigenvalues --   -0.78383  -0.76016  -0.74406  -0.69613  -0.69250
 Alpha  occ. eigenvalues --   -0.68459  -0.68159  -0.68109  -0.64834  -0.64255
 Alpha  occ. eigenvalues --   -0.62955  -0.61818  -0.60147  -0.59561  -0.59110
 Alpha  occ. eigenvalues --   -0.56890  -0.55237  -0.54762  -0.52443  -0.46728
 Alpha  occ. eigenvalues --   -0.46079  -0.44381
 Alpha virt. eigenvalues --   -0.26103  -0.14666  -0.14095  -0.12775  -0.11178
 Alpha virt. eigenvalues --   -0.10083  -0.09235  -0.07979  -0.07969  -0.07476
 Alpha virt. eigenvalues --   -0.07200  -0.07141  -0.05645  -0.05578  -0.05333

 Mulliken charges:
               1
     1  C    0.100252
     2  C   -0.408707
     3  C   -0.442087
     4  C    0.000191
     5  C    0.013644
     6  C   -0.437378
     7  C   -0.404135
     8  C    0.083231
     9  C   -0.348381
    10  C    0.084201
    11  C   -0.621063
    12  C    0.691341
    13  C   -0.641454
    14  C    0.711603
    15  H    0.236606
    16  H    0.254518
    17  H    0.247491
    18  H    0.220690
    19  H    0.190423
    20  H    0.223413
    21  H    0.250177
    22  H    0.257917
    23  H    0.238538
    24  H    0.249483
    25  H    0.249483
 Sum of Mulliken charges =   1.00000

 Dipole moment (field-independent basis, Debye):
    X=              0.0301    Y=             -0.4601    Z=             -0.0000  Tot=              0.4611
 Quadrupole moment (field-independent basis, Debye-Ang):
   XX=            -50.8643   YY=            -36.4807   ZZ=            -84.1415
   XY=            -10.3485   XZ=             -0.0000   YZ=             -0.0000

 Normal termination of Gaussian 16 at Wed Jul 27 12:23:56 2022.
