 Gaussian 16, Revision C.01,
 Gaussian 16:  ES64L-G16RevC.01  3-Jul-2019

 ---------------------------------------------------------------
 #n M062X/6-311++G(d,p) TD(NStates=1) EmpiricalDispersion=GD3 SP
 ---------------------------------------------------------------

 ------
 SP_-25
 ------
 Symbolic Z-matrix:
 Charge =  1 Multiplicity = 1

                         Standard orientation:
 ---------------------------------------------------------------------
 Center     Atomic      Atomic             Coordinates (Angstroms)
 Number     Number       Type             X           Y           Z
 ---------------------------------------------------------------------
      1          6           0        0.023294    2.843998    0.000000
      2          6           0       -1.151445    3.589516    0.000000
      3          6           0       -2.359884    2.917616    0.000000
      4          6           0       -2.394234    1.504385    0.000000
      5          6           0       -0.080900   -2.844870    0.000000
      6          6           0        1.100522   -3.585656    0.000000
      7          6           0        2.329937   -2.941664    0.000000
      8          6           0        2.371289   -1.549549    0.000000
      9          6           0        1.276051    0.686553    0.000000
     10          6           0       -1.254545   -0.684302    0.000000
     11          6           0        0.000000    1.428482    0.000000
     12          6           0       -1.225185    0.743043    0.000000
     13          6           0        1.196078   -0.794023    0.000000
     14          6           0       -0.059579   -1.441207    0.000000
     15          1           0        0.983347    3.345979    0.000000
     16          1           0       -1.116336    4.668577    0.000000
     17          1           0       -3.292470    3.464649    0.000000
     18          1           0       -3.353336    1.002004    0.000000
     19          1           0       -2.208624   -1.192955    0.000000
     20          1           0       -1.035353   -3.355423    0.000000
     21          1           0        1.051700   -4.665524    0.000000
     22          1           0        3.247482   -3.511529    0.000000
     23          1           0        3.326591   -1.038996    0.000000
     24          1           0        1.884300    1.024643    0.858500
     25          1           0        1.884300    1.024643   -0.858500
 ---------------------------------------------------------------------

 SCF Done:  E(RM062X) =  -539.759703764     A.U. after   15 cycles

 Excitation energies and oscillator strengths:

 Excited State   1:      Singlet-A'     2.8083 eV  441.49 nm  f=0.0277  <S**2>=0.000
      47 -> 48         0.70410
 This state for optimization and/or second-order correction.
 Total Energy, E(TD-HF/TD-DFT) =  -539.656500217
 Copying the excited state density for this state as the 1-particle RhoCI density.

 The electronic state is 1-A'.
 Alpha  occ. eigenvalues --  -10.77653 -10.73357 -10.73069 -10.72541 -10.72307
 Alpha  occ. eigenvalues --  -10.71502 -10.71268 -10.71227 -10.70966 -10.70753
 Alpha  occ. eigenvalues --  -10.70036 -10.69906 -10.69705 -10.69541  -1.16475
 Alpha  occ. eigenvalues --   -1.12484  -1.06944  -1.05779  -1.01312  -1.00231
 Alpha  occ. eigenvalues --   -0.95762  -0.91064  -0.86424  -0.85910  -0.83823
 Alpha  occ. eigenvalues --   -0.78398  -0.76059  -0.74417  -0.69567  -0.69257
 Alpha  occ. eigenvalues --   -0.68497  -0.68194  -0.68093  -0.64795  -0.64287
 Alpha  occ. eigenvalues --   -0.63070  -0.61851  -0.60040  -0.59627  -0.59090
 Alpha  occ. eigenvalues --   -0.56914  -0.55218  -0.54831  -0.52435  -0.46695
 Alpha  occ. eigenvalues --   -0.46067  -0.44425
 Alpha virt. eigenvalues --   -0.26080  -0.14672  -0.14094  -0.12771  -0.11181
 Alpha virt. eigenvalues --   -0.10090  -0.09232  -0.07981  -0.07961  -0.07477
 Alpha virt. eigenvalues --   -0.07207  -0.07146  -0.05642  -0.05583  -0.05336

 Mulliken charges:
               1
     1  C    0.099320
     2  C   -0.408705
     3  C   -0.441293
     4  C    0.015854
     5  C    0.025876
     6  C   -0.438611
     7  C   -0.405368
     8  C    0.087128
     9  C   -0.324281
    10  C    0.098263
    11  C   -0.633917
    12  C    0.667475
    13  C   -0.644916
    14  C    0.683058
    15  H    0.236436
    16  H    0.255268
    17  H    0.248067
    18  H    0.221038
    19  H    0.190223
    20  H    0.222935
    21  H    0.249866
    22  H    0.257523
    23  H    0.237730
    24  H    0.250515
    25  H    0.250515
 Sum of Mulliken charges =   1.00000

 Dipole moment (field-independent basis, Debye):
    X=             -0.0297    Y=             -0.3334    Z=              0.0000  Tot=              0.3347
 Quadrupole moment (field-independent basis, Debye-Ang):
   XX=            -50.7907   YY=            -36.5992   ZZ=            -84.1404
   XY=            -10.3669   XZ=             -0.0000   YZ=              0.0000

 Normal termination of Gaussian 16 at Wed Jul 27 10:57:42 2022.
