 Gaussian 16, Revision C.01,
 Gaussian 16:  ES64L-G16RevC.01  3-Jul-2019

 ---------------------------------------------------------------
 #n M062X/6-311++G(d,p) TD(NStates=1) EmpiricalDispersion=GD3 SP
 ---------------------------------------------------------------

 -------
 SP_-125
 -------
 Symbolic Z-matrix:
 Charge =  1 Multiplicity = 1

                         Standard orientation:
 ---------------------------------------------------------------------
 Center     Atomic      Atomic             Coordinates (Angstroms)
 Number     Number       Type             X           Y           Z
 ---------------------------------------------------------------------
      1          6           0        0.098282   -2.812065    0.000000
      2          6           0        1.322091   -3.480734    0.000000
      3          6           0        2.525469   -2.769777    0.000000
      4          6           0        2.509939   -1.408872    0.000000
      5          6           0       -0.058730    2.795000    0.000000
      6          6           0       -1.311384    3.520034    0.000000
      7          6           0       -2.512128    2.851497    0.000000
      8          6           0       -2.462832    1.464083    0.000000
      9          6           0       -1.255227   -0.730739    0.000000
     10          6           0        1.254312    0.687191    0.000000
     11          6           0        0.058336   -1.447145    0.000000
     12          6           0        1.277590   -0.704135    0.000000
     13          6           0       -1.210261    0.735297    0.000000
     14          6           0        0.000000    1.415867    0.000000
     15          1           0       -0.821824   -3.383294    0.000000
     16          1           0        1.337393   -4.561552    0.000000
     17          1           0        3.464322   -3.305576    0.000000
     18          1           0        3.430499   -0.840199    0.000000
     19          1           0        2.179307    1.246865    0.000000
     20          1           0        0.858269    3.371799    0.000000
     21          1           0       -1.274855    4.601384    0.000000
     22          1           0       -3.453779    3.377864    0.000000
     23          1           0       -3.378708    0.884488    0.000000
     24          1           0       -1.876682   -1.042393    0.859325
     25          1           0       -1.876682   -1.042393   -0.859325
 ---------------------------------------------------------------------

 SCF Done:  E(RM062X) =  -539.751388470     A.U. after   16 cycles

 Excitation energies and oscillator strengths:

 Excited State   1:      Singlet-A'     2.6220 eV  472.86 nm  f=0.0184  <S**2>=0.000
      47 -> 48         0.70345
 This state for optimization and/or second-order correction.
 Total Energy, E(TD-HF/TD-DFT) =  -539.655030942
 Copying the excited state density for this state as the 1-particle RhoCI density.

 The electronic state is 1-A'.
 Alpha  occ. eigenvalues --  -10.77547 -10.73860 -10.72897 -10.72574 -10.72210
 Alpha  occ. eigenvalues --  -10.71941 -10.71856 -10.70983 -10.70719 -10.70264
 Alpha  occ. eigenvalues --  -10.69990 -10.69910 -10.69680 -10.69259  -1.16589
 Alpha  occ. eigenvalues --   -1.12482  -1.06935  -1.05915  -1.01277  -1.00502
 Alpha  occ. eigenvalues --   -0.95497  -0.91021  -0.86452  -0.85891  -0.83768
 Alpha  occ. eigenvalues --   -0.78310  -0.76187  -0.74353  -0.69847  -0.69344
 Alpha  occ. eigenvalues --   -0.68254  -0.68083  -0.68032  -0.65401  -0.64232
 Alpha  occ. eigenvalues --   -0.62685  -0.61497  -0.60548  -0.59180  -0.59166
 Alpha  occ. eigenvalues --   -0.56961  -0.55268  -0.54466  -0.52440  -0.47497
 Alpha  occ. eigenvalues --   -0.46133  -0.43605
 Alpha virt. eigenvalues --   -0.26107  -0.14667  -0.14068  -0.12755  -0.11196
 Alpha virt. eigenvalues --   -0.10098  -0.09269  -0.07953  -0.07909  -0.07488
 Alpha virt. eigenvalues --   -0.07217  -0.07132  -0.05647  -0.05572  -0.05361

 Mulliken charges:
               1
     1  C    0.069388
     2  C   -0.400351
     3  C   -0.431342
     4  C    0.034455
     5  C   -0.007139
     6  C   -0.444446
     7  C   -0.415062
     8  C    0.121633
     9  C   -0.341722
    10  C    0.082725
    11  C   -0.658177
    12  C    0.715004
    13  C   -0.597841
    14  C    0.652883
    15  H    0.240314
    16  H    0.261358
    17  H    0.252939
    18  H    0.226258
    19  H    0.189151
    20  H    0.218073
    21  H    0.244918
    22  H    0.251284
    23  H    0.234662
    24  H    0.250518
    25  H    0.250518
 Sum of Mulliken charges =   1.00000

 Dipole moment (field-independent basis, Debye):
    X=              0.7846    Y=             -0.9894    Z=              0.0000  Tot=              1.2628
 Quadrupole moment (field-independent basis, Debye-Ang):
   XX=            -49.0526   YY=            -38.2049   ZZ=            -84.1274
   XY=            -11.4513   XZ=              0.0000   YZ=             -0.0000

 Normal termination of Gaussian 16 at Wed Jul 27 10:02:42 2022.
