 Gaussian 16, Revision C.01,
 Gaussian 16:  ES64L-G16RevC.01  3-Jul-2019

 ---------------------------------------------------------------
 #n M062X/6-311++G(d,p) TD(NStates=1) EmpiricalDispersion=GD3 SP
 ---------------------------------------------------------------

 -----
 SP_25
 -----
 Symbolic Z-matrix:
 Charge =  1 Multiplicity = 1

                         Standard orientation:
 ---------------------------------------------------------------------
 Center     Atomic      Atomic             Coordinates (Angstroms)
 Number     Number       Type             X           Y           Z
 ---------------------------------------------------------------------
      1          6           0        0.022985    2.847896    0.000000
      2          6           0       -1.149244    3.595396    0.000000
      3          6           0       -2.355996    2.922094    0.000000
      4          6           0       -2.389214    1.504001    0.000000
      5          6           0       -0.083587   -2.849526    0.000000
      6          6           0        1.093737   -3.587878    0.000000
      7          6           0        2.324048   -2.941709    0.000000
      8          6           0        2.368785   -1.550054    0.000000
      9          6           0        1.278588    0.688821    0.000000
     10          6           0       -1.252356   -0.688749    0.000000
     11          6           0        0.000000    1.426815    0.000000
     12          6           0       -1.222718    0.741800    0.000000
     13          6           0        1.197636   -0.795122    0.000000
     14          6           0       -0.059813   -1.443210    0.000000
     15          1           0        0.984483    3.347149    0.000000
     16          1           0       -1.113847    4.674308    0.000000
     17          1           0       -3.290121    3.466481    0.000000
     18          1           0       -3.349608    1.004005    0.000000
     19          1           0       -2.207032   -1.196122    0.000000
     20          1           0       -1.039510   -3.357111    0.000000
     21          1           0        1.047426   -4.667737    0.000000
     22          1           0        3.241170   -3.512443    0.000000
     23          1           0        3.325686   -1.042657    0.000000
     24          1           0        1.882127    1.030346    0.859325
     25          1           0        1.882127    1.030346   -0.859325
 ---------------------------------------------------------------------

 SCF Done:  E(RM062X) =  -539.759218500     A.U. after   15 cycles

 Excitation energies and oscillator strengths:

 Excited State   1:      Singlet-A'     2.7920 eV  444.07 nm  f=0.0263  <S**2>=0.000
      47 -> 48         0.70396
 This state for optimization and/or second-order correction.
 Total Energy, E(TD-HF/TD-DFT) =  -539.656614117
 Copying the excited state density for this state as the 1-particle RhoCI density.

 The electronic state is 1-A'.
 Alpha  occ. eigenvalues --  -10.77652 -10.73448 -10.73015 -10.72602 -10.72252
 Alpha  occ. eigenvalues --  -10.71570 -10.71397 -10.71159 -10.70977 -10.70625
 Alpha  occ. eigenvalues --  -10.70070 -10.69874 -10.69751 -10.69505  -1.16464
 Alpha  occ. eigenvalues --   -1.12472  -1.06944  -1.05758  -1.01310  -1.00230
 Alpha  occ. eigenvalues --   -0.95745  -0.91054  -0.86424  -0.85902  -0.83813
 Alpha  occ. eigenvalues --   -0.78389  -0.76051  -0.74410  -0.69597  -0.69259
 Alpha  occ. eigenvalues --   -0.68472  -0.68174  -0.68097  -0.64846  -0.64271
 Alpha  occ. eigenvalues --   -0.63007  -0.61825  -0.60116  -0.59566  -0.59101
 Alpha  occ. eigenvalues --   -0.56909  -0.55230  -0.54788  -0.52438  -0.46750
 Alpha  occ. eigenvalues --   -0.46078  -0.44362
 Alpha virt. eigenvalues --   -0.26088  -0.14670  -0.14093  -0.12772  -0.11181
 Alpha virt. eigenvalues --   -0.10088  -0.09235  -0.07979  -0.07962  -0.07477
 Alpha virt. eigenvalues --   -0.07205  -0.07144  -0.05643  -0.05581  -0.05336

 Mulliken charges:
               1
     1  C    0.102043
     2  C   -0.409445
     3  C   -0.441925
     4  C    0.008628
     5  C    0.023135
     6  C   -0.437651
     7  C   -0.404601
     8  C    0.084252
     9  C   -0.332811
    10  C    0.093291
    11  C   -0.627873
    12  C    0.673499
    13  C   -0.645863
    14  C    0.695659
    15  H    0.236299
    16  H    0.254639
    17  H    0.247576
    18  H    0.220610
    19  H    0.190237
    20  H    0.223410
    21  H    0.250269
    22  H    0.258028
    23  H    0.238232
    24  H    0.250182
    25  H    0.250182
 Sum of Mulliken charges =   1.00000

 Dipole moment (field-independent basis, Debye):
    X=              0.0347    Y=             -0.4574    Z=              0.0000  Tot=              0.4587
 Quadrupole moment (field-independent basis, Debye-Ang):
   XX=            -50.8639   YY=            -36.5056   ZZ=            -84.1402
   XY=            -10.3306   XZ=              0.0000   YZ=              0.0000

 Normal termination of Gaussian 16 at Wed Jul 27 11:31:11 2022.
