 Gaussian 16, Revision C.01,
 Gaussian 16:  ES64L-G16RevC.01  3-Jul-2019

 ---------------------------------------------------------------
 #n M062X/6-311++G(d,p) TD(NStates=1) EmpiricalDispersion=GD3 SP
 ---------------------------------------------------------------

 ------
 SP_100
 ------
 Symbolic Z-matrix:
 Charge =  1 Multiplicity = 1

                         Standard orientation:
 ---------------------------------------------------------------------
 Center     Atomic      Atomic             Coordinates (Angstroms)
 Number     Number       Type             X           Y           Z
 ---------------------------------------------------------------------
      1          6           0        0.022004    2.852495    0.000000
      2          6           0       -1.147370    3.601626    0.000000
      3          6           0       -2.352651    2.926627    0.000000
      4          6           0       -2.384292    1.503635    0.000000
      5          6           0       -0.086380   -2.854268    0.000000
      6          6           0        1.086607   -3.590602    0.000000
      7          6           0        2.318196   -2.942272    0.000000
      8          6           0        2.366445   -1.551561    0.000000
      9          6           0        1.283091    0.692082    0.000000
     10          6           0       -1.250272   -0.693231    0.000000
     11          6           0        0.000000    1.425228    0.000000
     12          6           0       -1.220020    0.740463    0.000000
     13          6           0        1.199242   -0.796292    0.000000
     14          6           0       -0.060030   -1.444965    0.000000
     15          1           0        0.984857    3.349128    0.000000
     16          1           0       -1.111897    4.680384    0.000000
     17          1           0       -3.288354    3.468190    0.000000
     18          1           0       -3.345863    1.005871    0.000000
     19          1           0       -2.205505   -1.199289    0.000000
     20          1           0       -1.043847   -3.358683    0.000000
     21          1           0        1.042615   -4.670382    0.000000
     22          1           0        3.234756   -3.514069    0.000000
     23          1           0        3.324994   -1.047477    0.000000
     24          1           0        1.880417    1.036269    0.860700
     25          1           0        1.880417    1.036269   -0.860700
 ---------------------------------------------------------------------

 SCF Done:  E(RM062X) =  -539.758515719     A.U. after   15 cycles

 Excitation energies and oscillator strengths:

 Excited State   1:      Singlet-A'     2.7702 eV  447.56 nm  f=0.0245  <S**2>=0.000
      47 -> 48         0.70382
 This state for optimization and/or second-order correction.
 Total Energy, E(TD-HF/TD-DFT) =  -539.656712932
 Copying the excited state density for this state as the 1-particle RhoCI density.

 The electronic state is 1-A'.
 Alpha  occ. eigenvalues --  -10.77653 -10.73553 -10.72974 -10.72667 -10.72200
 Alpha  occ. eigenvalues --  -10.71638 -10.71525 -10.71091 -10.70995 -10.70496
 Alpha  occ. eigenvalues --  -10.70104 -10.69842 -10.69800 -10.69473  -1.16445
 Alpha  occ. eigenvalues --   -1.12451  -1.06943  -1.05722  -1.01305  -1.00222
 Alpha  occ. eigenvalues --   -0.95722  -0.91039  -0.86422  -0.85889  -0.83799
 Alpha  occ. eigenvalues --   -0.78376  -0.76036  -0.74400  -0.69639  -0.69262
 Alpha  occ. eigenvalues --   -0.68436  -0.68145  -0.68105  -0.64907  -0.64250
 Alpha  occ. eigenvalues --   -0.62922  -0.61785  -0.60205  -0.59502  -0.59117
 Alpha  occ. eigenvalues --   -0.56899  -0.55244  -0.54730  -0.52442  -0.46821
 Alpha  occ. eigenvalues --   -0.46090  -0.44281
 Alpha virt. eigenvalues --   -0.26103  -0.14666  -0.14092  -0.12773  -0.11180
 Alpha virt. eigenvalues --   -0.10085  -0.09238  -0.07976  -0.07963  -0.07477
 Alpha virt. eigenvalues --   -0.07202  -0.07140  -0.05645  -0.05578  -0.05336

 Mulliken charges:
               1
     1  C    0.103596
     2  C   -0.409704
     3  C   -0.442656
     4  C   -0.000899
     5  C    0.017237
     6  C   -0.436457
     7  C   -0.403535
     8  C    0.080851
     9  C   -0.346666
    10  C    0.084716
    11  C   -0.617972
    12  C    0.685153
    13  C   -0.644916
    14  C    0.712326
    15  H    0.236261
    16  H    0.253973
    17  H    0.247060
    18  H    0.220240
    19  H    0.190286
    20  H    0.223878
    21  H    0.250639
    22  H    0.258500
    23  H    0.238828
    24  H    0.249630
    25  H    0.249630
 Sum of Mulliken charges =   1.00000

 Dipole moment (field-independent basis, Debye):
    X=              0.0978    Y=             -0.5821    Z=             -0.0000  Tot=              0.5903
 Quadrupole moment (field-independent basis, Debye-Ang):
   XX=            -50.9367   YY=            -36.4013   ZZ=            -84.1401
   XY=            -10.3018   XZ=              0.0000   YZ=             -0.0000

 Normal termination of Gaussian 16 at Wed Jul 27 12:22:20 2022.
