 Gaussian 16, Revision C.01,
 Gaussian 16:  ES64L-G16RevC.01  3-Jul-2019

 ---------------------------------------------------------------
 #n M062X/6-311++G(d,p) TD(NStates=1) EmpiricalDispersion=GD3 SP
 ---------------------------------------------------------------

 ------
 SP_125
 ------
 Symbolic Z-matrix:
 Charge =  1 Multiplicity = 1

                         Standard orientation:
 ---------------------------------------------------------------------
 Center     Atomic      Atomic             Coordinates (Angstroms)
 Number     Number       Type             X           Y           Z
 ---------------------------------------------------------------------
      1          6           0        0.021320    2.853194    0.000000
      2          6           0       -1.147714    3.601975    0.000000
      3          6           0       -2.353206    2.926681    0.000000
      4          6           0       -2.384390    1.503656    0.000000
      5          6           0       -0.086472   -2.854357    0.000000
      6          6           0        1.086272   -3.591111    0.000000
      7          6           0        2.318237   -2.942794    0.000000
      8          6           0        2.366612   -1.552562    0.000000
      9          6           0        1.285051    0.693083    0.000000
     10          6           0       -1.250367   -0.693264    0.000000
     11          6           0        0.000000    1.425308    0.000000
     12          6           0       -1.219787    0.740370    0.000000
     13          6           0        1.199291   -0.796356    0.000000
     14          6           0       -0.060005   -1.444716    0.000000
     15          1           0        0.984084    3.349939    0.000000
     16          1           0       -1.112454    4.680728    0.000000
     17          1           0       -3.288944    3.468062    0.000000
     18          1           0       -3.345850    1.005737    0.000000
     19          1           0       -2.205561   -1.199290    0.000000
     20          1           0       -1.044015   -3.358575    0.000000
     21          1           0        1.042089   -4.670816    0.000000
     22          1           0        3.234662   -3.514781    0.000000
     23          1           0        3.325213   -1.048630    0.000000
     24          1           0        1.880868    1.036488    0.861250
     25          1           0        1.880868    1.036488   -0.861250
 ---------------------------------------------------------------------

 SCF Done:  E(RM062X) =  -539.758523289     A.U. after   15 cycles

 Excitation energies and oscillator strengths:

 Excited State   1:      Singlet-A'     2.7700 eV  447.60 nm  f=0.0243  <S**2>=0.000
      47 -> 48         0.70382
 This state for optimization and/or second-order correction.
 Total Energy, E(TD-HF/TD-DFT) =  -539.656728111
 Copying the excited state density for this state as the 1-particle RhoCI density.

 The electronic state is 1-A'.
 Alpha  occ. eigenvalues --  -10.77658 -10.73566 -10.72987 -10.72671 -10.72205
 Alpha  occ. eigenvalues --  -10.71639 -10.71522 -10.71092 -10.71002 -10.70494
 Alpha  occ. eigenvalues --  -10.70105 -10.69842 -10.69803 -10.69477  -1.16432
 Alpha  occ. eigenvalues --   -1.12443  -1.06944  -1.05701  -1.01305  -1.00207
 Alpha  occ. eigenvalues --   -0.95724  -0.91034  -0.86421  -0.85884  -0.83795
 Alpha  occ. eigenvalues --   -0.78374  -0.76025  -0.74399  -0.69644  -0.69259
 Alpha  occ. eigenvalues --   -0.68432  -0.68140  -0.68110  -0.64903  -0.64245
 Alpha  occ. eigenvalues --   -0.62906  -0.61782  -0.60215  -0.59501  -0.59120
 Alpha  occ. eigenvalues --   -0.56893  -0.55245  -0.54721  -0.52444  -0.46814
 Alpha  occ. eigenvalues --   -0.46091  -0.44287
 Alpha virt. eigenvalues --   -0.26108  -0.14665  -0.14093  -0.12774  -0.11180
 Alpha virt. eigenvalues --   -0.10083  -0.09238  -0.07976  -0.07965  -0.07477
 Alpha virt. eigenvalues --   -0.07200  -0.07139  -0.05646  -0.05577  -0.05335

 Mulliken charges:
               1
     1  C    0.102756
     2  C   -0.409356
     3  C   -0.442730
     4  C   -0.003492
     5  C    0.014183
     6  C   -0.436353
     7  C   -0.403295
     8  C    0.080344
     9  C   -0.351764
    10  C    0.081586
    11  C   -0.615234
    12  C    0.690759
    13  C   -0.643190
    14  C    0.717160
    15  H    0.236357
    16  H    0.253933
    17  H    0.247034
    18  H    0.220274
    19  H    0.190350
    20  H    0.223879
    21  H    0.250609
    22  H    0.258465
    23  H    0.238924
    24  H    0.249401
    25  H    0.249401
 Sum of Mulliken charges =   1.00000

 Dipole moment (field-independent basis, Debye):
    X=              0.0963    Y=             -0.5830    Z=              0.0000  Tot=              0.5909
 Quadrupole moment (field-independent basis, Debye-Ang):
   XX=            -50.9368   YY=            -36.3931   ZZ=            -84.1405
   XY=            -10.3077   XZ=              0.0000   YZ=              0.0000

 Normal termination of Gaussian 16 at Wed Jul 27 12:40:19 2022.
