 Gaussian 16, Revision C.01,
 Gaussian 16:  ES64L-G16RevC.01  3-Jul-2019

 ---------------------------------------------------------------
 #n M062X/6-311++G(d,p) TD(NStates=1) EmpiricalDispersion=GD3 SP
 ---------------------------------------------------------------

 ------
 SP_-25
 ------
 Symbolic Z-matrix:
 Charge =  1 Multiplicity = 1

                         Standard orientation:
 ---------------------------------------------------------------------
 Center     Atomic      Atomic             Coordinates (Angstroms)
 Number     Number       Type             X           Y           Z
 ---------------------------------------------------------------------
      1          6           0       -1.360715   -2.491748    0.000000
      2          6           0       -0.672190   -3.701023    0.000000
      3          6           0        0.713285   -3.683598    0.000000
      4          6           0        1.407485   -2.463148    0.000000
      5          6           0        1.407485    2.463152    0.000000
      6          6           0        0.713285    3.683602    0.000000
      7          6           0       -0.672190    3.701027    0.000000
      8          6           0       -1.360715    2.491752    0.000000
      9          6           0       -1.451215   -0.000023    0.000000
     10          6           0        1.429085    0.000002    0.000000
     11          6           0       -0.676990   -1.262023    0.000000
     12          6           0        0.730935   -1.237698    0.000000
     13          6           0       -0.676990    1.262027    0.000000
     14          6           0        0.730935    1.237702    0.000000
     15          1           0       -2.443940   -2.486998    0.000000
     16          1           0       -1.212090   -4.636223    0.000000
     17          1           0        1.271760   -4.609148    0.000000
     18          1           0        2.490010   -2.467648    0.000000
     19          1           0        2.510235    0.000002    0.000000
     20          1           0        2.490010    2.467652    0.000000
     21          1           0        1.271760    4.609152    0.000000
     22          1           0       -1.212090    4.636227    0.000000
     23          1           0       -2.443940    2.487002    0.000000
     24          1           0       -2.145315    0.000002    0.859050
     25          1           0       -2.145315    0.000002   -0.859050
 ---------------------------------------------------------------------

 SCF Done:  E(RM062X) =  -539.760200155     A.U. after   15 cycles

 Excitation energies and oscillator strengths:

 Excited State   1:      Singlet-A'     2.8225 eV  439.27 nm  f=0.0288  <S**2>=0.000
      47 -> 48         0.70426
 This state for optimization and/or second-order correction.
 Total Energy, E(TD-HF/TD-DFT) =  -539.656475594
 Copying the excited state density for this state as the 1-particle RhoCI density.

 The electronic state is 1-A'.
 Alpha  occ. eigenvalues --  -10.77662 -10.73228 -10.73227 -10.72432 -10.72430
 Alpha  occ. eigenvalues --  -10.71368 -10.71368 -10.71006 -10.71006 -10.70973
 Alpha  occ. eigenvalues --  -10.69971 -10.69971 -10.69627 -10.69627  -1.16455
 Alpha  occ. eigenvalues --   -1.12474  -1.06945  -1.05749  -1.01314  -1.00199
 Alpha  occ. eigenvalues --   -0.95780  -0.91061  -0.86421  -0.85905  -0.83821
 Alpha  occ. eigenvalues --   -0.78401  -0.76039  -0.74420  -0.69554  -0.69248
 Alpha  occ. eigenvalues --   -0.68508  -0.68199  -0.68097  -0.64742  -0.64290
 Alpha  occ. eigenvalues --   -0.63082  -0.61868  -0.59988  -0.59686  -0.59088
 Alpha  occ. eigenvalues --   -0.56904  -0.55212  -0.54847  -0.52437  -0.46632
 Alpha  occ. eigenvalues --   -0.46057  -0.44494
 Alpha virt. eigenvalues --   -0.26084  -0.14671  -0.14096  -0.12773  -0.11180
 Alpha virt. eigenvalues --   -0.10088  -0.09230  -0.07983  -0.07967  -0.07476
 Alpha virt. eigenvalues --   -0.07205  -0.07146  -0.05642  -0.05582  -0.05333

 Mulliken charges:
               1
     1  C    0.093424
     2  C   -0.406847
     3  C   -0.440118
     4  C    0.017685
     5  C    0.017695
     6  C   -0.440117
     7  C   -0.406831
     8  C    0.093447
     9  C   -0.329120
    10  C    0.096014
    11  C   -0.638024
    12  C    0.680494
    13  C   -0.637996
    14  C    0.680479
    15  H    0.237176
    16  H    0.256356
    17  H    0.248932
    18  H    0.221985
    19  H    0.190350
    20  H    0.221986
    21  H    0.248933
    22  H    0.256356
    23  H    0.237176
    24  H    0.250282
    25  H    0.250282
 Sum of Mulliken charges =   1.00000

 Dipole moment (field-independent basis, Debye):
    X=              0.1861    Y=              0.0000    Z=              0.0000  Tot=              0.1861
 Quadrupole moment (field-independent basis, Debye-Ang):
   XX=            -56.2588   YY=            -31.1289   ZZ=            -84.1417
   XY=             -0.0000   XZ=              0.0000   YZ=             -0.0000

 Normal termination of Gaussian 16 at Wed Jul 27 11:00:33 2022.
