 Gaussian 16, Revision C.01,
 Gaussian 16:  ES64L-G16RevC.01  3-Jul-2019

 ---------------------------------------------------------------
 #n M062X/6-311++G(d,p) TD(NStates=1) EmpiricalDispersion=GD3 SP
 ---------------------------------------------------------------

 ----
 SP_0
 ----
 Symbolic Z-matrix:
 Charge =  1 Multiplicity = 1

                         Standard orientation:
 ---------------------------------------------------------------------
 Center     Atomic      Atomic             Coordinates (Angstroms)
 Number     Number       Type             X           Y           Z
 ---------------------------------------------------------------------
      1          6           0        2.489639   -1.371216    0.000000
      2          6           0        3.702328   -0.689915    0.000000
      3          6           0        3.687851    0.694461    0.000000
      4          6           0        2.465248    1.394590    0.000000
      5          6           0       -2.461036    1.420487    0.000000
      6          6           0       -3.679553    0.732585    0.000000
      7          6           0       -3.700113   -0.654314    0.000000
      8          6           0       -2.494765   -1.349918    0.000000
      9          6           0       -0.004186   -1.452311    0.000000
     10          6           0        0.000000    1.429148    0.000000
     11          6           0        1.258120   -0.680548    0.000000
     12          6           0        1.238161    0.725201    0.000000
     13          6           0       -1.265998   -0.673436    0.000000
     14          6           0       -1.237013    0.736526    0.000000
     15          1           0        2.477895   -2.454426    0.000000
     16          1           0        4.635281   -1.233437    0.000000
     17          1           0        4.613877    1.252204    0.000000
     18          1           0        2.476414    2.477127    0.000000
     19          1           0        0.005160    2.510261    0.000000
     20          1           0       -2.458670    2.502937    0.000000
     21          1           0       -4.604488    1.291923    0.000000
     22          1           0       -4.637644   -1.190381    0.000000
     23          1           0       -2.497159   -2.433093    0.000000
     24          1           0       -0.001390   -2.145580    0.859325
     25          1           0       -0.001390   -2.145580   -0.859325
 ---------------------------------------------------------------------

 SCF Done:  E(RM062X) =  -539.760107430     A.U. after   15 cycles

 Excitation energies and oscillator strengths:

 Excited State   1:      Singlet-A'     2.8190 eV  439.82 nm  f=0.0284  <S**2>=0.000
      47 -> 48         0.70422
 This state for optimization and/or second-order correction.
 Total Energy, E(TD-HF/TD-DFT) =  -539.656511225
 Copying the excited state density for this state as the 1-particle RhoCI density.

 The electronic state is 1-A'.
 Alpha  occ. eigenvalues --  -10.77663 -10.73306 -10.73161 -10.72491 -10.72374
 Alpha  occ. eigenvalues --  -10.71437 -10.71299 -10.71135 -10.70977 -10.70877
 Alpha  occ. eigenvalues --  -10.70004 -10.69939 -10.69669 -10.69587  -1.16450
 Alpha  occ. eigenvalues --   -1.12470  -1.06945  -1.05741  -1.01313  -1.00196
 Alpha  occ. eigenvalues --   -0.95777  -0.91058  -0.86420  -0.85903  -0.83819
 Alpha  occ. eigenvalues --   -0.78398  -0.76035  -0.74418  -0.69562  -0.69248
 Alpha  occ. eigenvalues --   -0.68502  -0.68194  -0.68099  -0.64753  -0.64285
 Alpha  occ. eigenvalues --   -0.63065  -0.61863  -0.60013  -0.59666  -0.59091
 Alpha  occ. eigenvalues --   -0.56902  -0.55216  -0.54836  -0.52438  -0.46642
 Alpha  occ. eigenvalues --   -0.46060  -0.44482
 Alpha virt. eigenvalues --   -0.26086  -0.14670  -0.14096  -0.12773  -0.11180
 Alpha virt. eigenvalues --   -0.10087  -0.09230  -0.07983  -0.07968  -0.07476
 Alpha virt. eigenvalues --   -0.07204  -0.07146  -0.05643  -0.05582  -0.05333

 Mulliken charges:
               1
     1  C    0.096290
     2  C   -0.407632
     3  C   -0.440791
     4  C    0.013598
     5  C    0.018532
     6  C   -0.439367
     7  C   -0.405995
     8  C    0.090420
     9  C   -0.331873
    10  C    0.094429
    11  C   -0.634196
    12  C    0.679814
    13  C   -0.640151
    14  C    0.687261
    15  H    0.236913
    16  H    0.255769
    17  H    0.248469
    18  H    0.221524
    19  H    0.190365
    20  H    0.222460
    21  H    0.249366
    22  H    0.256901
    23  H    0.237556
    24  H    0.250169
    25  H    0.250169
 Sum of Mulliken charges =   1.00000

 Dipole moment (field-independent basis, Debye):
    X=             -0.1393    Y=              0.1874    Z=              0.0000  Tot=              0.2334
 Quadrupole moment (field-independent basis, Debye-Ang):
   XX=            -31.1223   YY=            -56.2596   ZZ=            -84.1417
   XY=             -0.1767   XZ=             -0.0000   YZ=             -0.0000

 Normal termination of Gaussian 16 at Wed Jul 27 11:17:41 2022.
