 Gaussian 16, Revision C.01,
 Gaussian 16:  ES64L-G16RevC.01  3-Jul-2019

 ---------------------------------------------------------------
 #n M062X/6-311++G(d,p) TD(NStates=1) EmpiricalDispersion=GD3 SP
 ---------------------------------------------------------------

 -----
 SP_50
 -----
 Symbolic Z-matrix:
 Charge =  1 Multiplicity = 1

                         Standard orientation:
 ---------------------------------------------------------------------
 Center     Atomic      Atomic             Coordinates (Angstroms)
 Number     Number       Type             X           Y           Z
 ---------------------------------------------------------------------
      1          6           0       -2.372138   -1.554551    0.000000
      2          6           0       -2.330157   -2.944274    0.000000
      3          6           0       -1.098868   -3.588206    0.000000
      4          6           0        0.081346   -2.845323    0.000000
      5          6           0        2.394723    1.504476    0.000000
      6          6           0        2.362663    2.917865    0.000000
      7          6           0        1.153174    3.591250    0.000000
      8          6           0       -0.019862    2.847480    0.000000
      9          6           0       -1.285775    0.691702    0.000000
     10          6           0        1.255013   -0.684482    0.000000
     11          6           0       -1.196333   -0.794348    0.000000
     12          6           0        0.059449   -1.439969    0.000000
     13          6           0        0.000000    1.428872    0.000000
     14          6           0        1.224016    0.742569    0.000000
     15          1           0       -3.327706   -1.044760    0.000000
     16          1           0       -3.247030   -3.515092    0.000000
     17          1           0       -1.049093   -4.667705    0.000000
     18          1           0        1.036183   -3.354893    0.000000
     19          1           0        2.208894   -1.192975    0.000000
     20          1           0        3.353266    1.001315    0.000000
     21          1           0        3.295423    3.463984    0.000000
     22          1           0        1.119134    4.670279    0.000000
     23          1           0       -0.979473    3.350021    0.000000
     24          1           0       -1.886554    1.025737    0.861250
     25          1           0       -1.886554    1.025737   -0.861250
 ---------------------------------------------------------------------

 SCF Done:  E(RM062X) =  -539.759816024     A.U. after   15 cycles

 Excitation energies and oscillator strengths:

 Excited State   1:      Singlet-A'     2.8087 eV  441.42 nm  f=0.0271  <S**2>=0.000
      47 -> 48         0.70410
 This state for optimization and/or second-order correction.
 Total Energy, E(TD-HF/TD-DFT) =  -539.656596420
 Copying the excited state density for this state as the 1-particle RhoCI density.

 The electronic state is 1-A'.
 Alpha  occ. eigenvalues --  -10.77675 -10.73425 -10.73133 -10.72563 -10.72330
 Alpha  occ. eigenvalues --  -10.71508 -10.71258 -10.71234 -10.71001 -10.70743
 Alpha  occ. eigenvalues --  -10.70039 -10.69907 -10.69722 -10.69559  -1.16411
 Alpha  occ. eigenvalues --   -1.12441  -1.06945  -1.05674  -1.01311  -1.00157
 Alpha  occ. eigenvalues --   -0.95771  -0.91039  -0.86416  -0.85886  -0.83803
 Alpha  occ. eigenvalues --   -0.78387  -0.76000  -0.74410  -0.69595  -0.69242
 Alpha  occ. eigenvalues --   -0.68475  -0.68168  -0.68112  -0.64777  -0.64260
 Alpha  occ. eigenvalues --   -0.62979  -0.61843  -0.60100  -0.59611  -0.59104
 Alpha  occ. eigenvalues --   -0.56882  -0.55232  -0.54785  -0.52443  -0.46658
 Alpha  occ. eigenvalues --   -0.46068  -0.44459
 Alpha virt. eigenvalues --   -0.26104  -0.14665  -0.14097  -0.12776  -0.11177
 Alpha virt. eigenvalues --   -0.10082  -0.09232  -0.07981  -0.07974  -0.07475
 Alpha virt. eigenvalues --   -0.07198  -0.07141  -0.05645  -0.05579  -0.05331

 Mulliken charges:
               1
     1  C    0.085668
     2  C   -0.404679
     3  C   -0.438267
     4  C    0.010075
     5  C    0.001188
     6  C   -0.441450
     7  C   -0.407773
     8  C    0.096900
     9  C   -0.350337
    10  C    0.083384
    11  C   -0.637593
    12  C    0.710834
    13  C   -0.623998
    14  C    0.697483
    15  H    0.238250
    16  H    0.257333
    17  H    0.249715
    18  H    0.222955
    19  H    0.190528
    20  H    0.221143
    21  H    0.247922
    22  H    0.255066
    23  H    0.236961
    24  H    0.249346
    25  H    0.249346
 Sum of Mulliken charges =   1.00000

 Dipole moment (field-independent basis, Debye):
    X=              0.0374    Y=             -0.3378    Z=             -0.0000  Tot=              0.3399
 Quadrupole moment (field-independent basis, Debye-Ang):
   XX=            -50.7912   YY=            -36.5576   ZZ=            -84.1426
   XY=             10.3969   XZ=              0.0000   YZ=             -0.0000

 Normal termination of Gaussian 16 at Wed Jul 27 11:55:26 2022.
