 Gaussian 16, Revision C.01,
 Gaussian 16:  ES64L-G16RevC.01  3-Jul-2019

 ---------------------------------------------------------------
 #n M062X/6-311++G(d,p) TD(NStates=1) EmpiricalDispersion=GD3 SP
 ---------------------------------------------------------------

 -------
 SP_-100
 -------
 Symbolic Z-matrix:
 Charge =  1 Multiplicity = 1

                         Standard orientation:
 ---------------------------------------------------------------------
 Center     Atomic      Atomic             Coordinates (Angstroms)
 Number     Number       Type             X           Y           Z
 ---------------------------------------------------------------------
      1          6           0        2.485820   -1.372412    0.000000
      2          6           0        3.700414   -0.690625    0.000000
      3          6           0        3.686640    0.692448    0.000000
      4          6           0        2.465048    1.394180    0.000000
      5          6           0       -2.460836    1.420102    0.000000
      6          6           0       -3.678364    0.730603    0.000000
      7          6           0       -3.698226   -0.654999    0.000000
      8          6           0       -2.490985   -1.351118    0.000000
      9          6           0       -0.004062   -1.443509    0.000000
     10          6           0        0.000000    1.428750    0.000000
     11          6           0        1.257811   -0.680452    0.000000
     12          6           0        1.238962    0.725793    0.000000
     13          6           0       -1.265707   -0.673328    0.000000
     14          6           0       -1.237812    0.737139    0.000000
     15          1           0        2.473470   -2.455718    0.000000
     16          1           0        4.632962   -1.234951    0.000000
     17          1           0        4.613266    1.249683    0.000000
     18          1           0        2.477021    2.476813    0.000000
     19          1           0        0.005167    2.510063    0.000000
     20          1           0       -2.459264    2.502655    0.000000
     21          1           0       -4.603898    1.289449    0.000000
     22          1           0       -4.635364   -1.191863    0.000000
     23          1           0       -2.492785   -2.434396    0.000000
     24          1           0       -0.001399   -2.143578    0.857125
     25          1           0       -0.001399   -2.143578   -0.857125
 ---------------------------------------------------------------------

 SCF Done:  E(RM062X) =  -539.759917172     A.U. after   15 cycles

 Excitation energies and oscillator strengths:

 Excited State   1:      Singlet-A'     2.8181 eV  439.96 nm  f=0.0289  <S**2>=0.000
      47 -> 48         0.70422
 This state for optimization and/or second-order correction.
 Total Energy, E(TD-HF/TD-DFT) =  -539.656353992
 Copying the excited state density for this state as the 1-particle RhoCI density.

 The electronic state is 1-A'.
 Alpha  occ. eigenvalues --  -10.77645 -10.73254 -10.73109 -10.72473 -10.72357
 Alpha  occ. eigenvalues --  -10.71432 -10.71294 -10.71143 -10.70950 -10.70885
 Alpha  occ. eigenvalues --  -10.70002 -10.69937 -10.69656 -10.69573  -1.16502
 Alpha  occ. eigenvalues --   -1.12504  -1.06944  -1.05824  -1.01315  -1.00256
 Alpha  occ. eigenvalues --   -0.95770  -0.91079  -0.86427  -0.85922  -0.83835
 Alpha  occ. eigenvalues --   -0.78407  -0.76083  -0.74423  -0.69539  -0.69261
 Alpha  occ. eigenvalues --   -0.68519  -0.68214  -0.68085  -0.64766  -0.64307
 Alpha  occ. eigenvalues --   -0.63141  -0.61868  -0.59960  -0.59684  -0.59078
 Alpha  occ. eigenvalues --   -0.56928  -0.55202  -0.54873  -0.52431  -0.46673
 Alpha  occ. eigenvalues --   -0.46060  -0.44452
 Alpha virt. eigenvalues --   -0.26067  -0.14675  -0.14094  -0.12769  -0.11183
 Alpha virt. eigenvalues --   -0.10094  -0.09230  -0.07983  -0.07958  -0.07478
 Alpha virt. eigenvalues --   -0.07211  -0.07150  -0.05640  -0.05585  -0.05337

 Mulliken charges:
               1
     1  C    0.096264
     2  C   -0.407499
     3  C   -0.440750
     4  C    0.026748
     5  C    0.032164
     6  C   -0.439550
     7  C   -0.405681
     8  C    0.090066
     9  C   -0.310729
    10  C    0.105244
    11  C   -0.638832
    12  C    0.653355
    13  C   -0.643559
    14  C    0.661795
    15  H    0.236451
    16  H    0.255939
    17  H    0.248589
    18  H    0.221486
    19  H    0.190126
    20  H    0.222460
    21  H    0.249489
    22  H    0.257065
    23  H    0.237095
    24  H    0.251131
    25  H    0.251131
 Sum of Mulliken charges =   1.00000

 Dipole moment (field-independent basis, Debye):
    X=             -0.1392    Y=              0.1801    Z=             -0.0000  Tot=              0.2276
 Quadrupole moment (field-independent basis, Debye-Ang):
   XX=            -31.1690   YY=            -56.2466   ZZ=            -84.1398
   XY=             -0.1767   XZ=             -0.0000   YZ=              0.0000

 Normal termination of Gaussian 16 at Wed Jul 27 10:05:37 2022.
