 Gaussian 16, Revision C.01,
 Gaussian 16:  ES64L-G16RevC.01  3-Jul-2019

 ---------------------------------------------------------------
 #n M062X/6-311++G(d,p) TD(NStates=1) EmpiricalDispersion=GD3 SP
 ---------------------------------------------------------------

 ------
 SP_100
 ------
 Symbolic Z-matrix:
 Charge =  1 Multiplicity = 1

                         Standard orientation:
 ---------------------------------------------------------------------
 Center     Atomic      Atomic             Coordinates (Angstroms)
 Number     Number       Type             X           Y           Z
 ---------------------------------------------------------------------
      1          6           0        2.499519   -1.348393    0.000000
      2          6           0        3.702492   -0.653420    0.000000
      3          6           0        3.681046    0.735100    0.000000
      4          6           0        2.461286    1.420992    0.000000
      5          6           0       -2.465498    1.395080    0.000000
      6          6           0       -3.689358    0.696941    0.000000
      7          6           0       -3.704698   -0.689063    0.000000
      8          6           0       -2.494385   -1.369747    0.000000
      9          6           0        0.004144   -1.463314    0.000000
     10          6           0        0.000000    1.429645    0.000000
     11          6           0        1.266381   -0.673558    0.000000
     12          6           0        1.236020    0.735773    0.000000
     13          6           0       -1.258486   -0.680681    0.000000
     14          6           0       -1.237154    0.724449    0.000000
     15          1           0        2.502665   -2.431439    0.000000
     16          1           0        4.640521   -1.188483    0.000000
     17          1           0        4.605227    1.295062    0.000000
     18          1           0        2.457918    2.503313    0.000000
     19          1           0       -0.005162    2.510508    0.000000
     20          1           0       -2.475667    2.477496    0.000000
     21          1           0       -4.614637    1.255310    0.000000
     22          1           0       -4.638154   -1.231591    0.000000
     23          1           0       -2.483389   -2.452834    0.000000
     24          1           0        0.001413   -2.148082    0.862075
     25          1           0        0.001413   -2.148082   -0.862075
 ---------------------------------------------------------------------

 SCF Done:  E(RM062X) =  -539.760152650     A.U. after   15 cycles

 Excitation energies and oscillator strengths:

 Excited State   1:      Singlet-A'     2.8198 eV  439.70 nm  f=0.0279  <S**2>=0.000
      47 -> 48         0.70422
 This state for optimization and/or second-order correction.
 Total Energy, E(TD-HF/TD-DFT) =  -539.656528468
 Copying the excited state density for this state as the 1-particle RhoCI density.

 The electronic state is 1-A'.
 Alpha  occ. eigenvalues --  -10.77685 -10.73373 -10.73226 -10.72513 -10.72396
 Alpha  occ. eigenvalues --  -10.71443 -10.71306 -10.71124 -10.71013 -10.70866
 Alpha  occ. eigenvalues --  -10.70007 -10.69940 -10.69686 -10.69605  -1.16387
 Alpha  occ. eigenvalues --   -1.12428  -1.06946  -1.05636  -1.01312  -1.00121
 Alpha  occ. eigenvalues --   -0.95786  -0.91032  -0.86412  -0.85879  -0.83799
 Alpha  occ. eigenvalues --   -0.78388  -0.75975  -0.74411  -0.69591  -0.69233
 Alpha  occ. eigenvalues --   -0.68480  -0.68168  -0.68120  -0.64738  -0.64257
 Alpha  occ. eigenvalues --   -0.62971  -0.61856  -0.60082  -0.59640  -0.59104
 Alpha  occ. eigenvalues --   -0.56869  -0.55232  -0.54787  -0.52446  -0.46605
 Alpha  occ. eigenvalues --   -0.46060  -0.44517
 Alpha virt. eigenvalues --   -0.26111  -0.14664  -0.14099  -0.12778  -0.11176
 Alpha virt. eigenvalues --   -0.10079  -0.09231  -0.07982  -0.07981  -0.07474
 Alpha virt. eigenvalues --   -0.07196  -0.07141  -0.05646  -0.05578  -0.05328

 Mulliken charges:
               1
     1  C    0.087844
     2  C   -0.404761
     3  C   -0.439181
     4  C    0.003745
     5  C   -0.000668
     6  C   -0.440842
     7  C   -0.406334
     8  C    0.093165
     9  C   -0.357589
    10  C    0.079065
    11  C   -0.630475
    12  C    0.713790
    13  C   -0.623347
    14  C    0.707450
    15  H    0.238049
    16  H    0.256714
    17  H    0.249219
    18  H    0.222518
    19  H    0.190671
    20  H    0.221623
    21  H    0.248325
    22  H    0.255577
    23  H    0.237410
    24  H    0.249017
    25  H    0.249017
 Sum of Mulliken charges =   1.00000

 Dipole moment (field-independent basis, Debye):
    X=              0.1394    Y=              0.1961    Z=              0.0000  Tot=              0.2406
 Quadrupole moment (field-independent basis, Debye-Ang):
   XX=            -31.0658   YY=            -56.2756   ZZ=            -84.1439
   XY=              0.1769   XZ=              0.0000   YZ=             -0.0000

 Normal termination of Gaussian 16 at Wed Jul 27 12:29:46 2022.
