 Gaussian 16, Revision C.01,
 Gaussian 16:  ES64L-G16RevC.01  3-Jul-2019

 ---------------------------------------------------------------
 #n M062X/6-311++G(d,p) TD(NStates=1) EmpiricalDispersion=GD3 SP
 ---------------------------------------------------------------

 ------
 SP_125
 ------
 Symbolic Z-matrix:
 Charge =  1 Multiplicity = 1

                         Standard orientation:
 ---------------------------------------------------------------------
 Center     Atomic      Atomic             Coordinates (Angstroms)
 Number     Number       Type             X           Y           Z
 ---------------------------------------------------------------------
      1          6           0        0.023500    2.858203    0.000000
      2          6           0       -1.141854    3.612340    0.000000
      3          6           0       -2.343151    2.935422    0.000000
      4          6           0       -2.373957    1.502789    0.000000
      5          6           0       -0.091549   -2.863301    0.000000
      6          6           0        1.073990   -3.593490    0.000000
      7          6           0        2.306277   -2.940780    0.000000
      8          6           0        2.360930   -1.549579    0.000000
      9          6           0        1.282311    0.693589    0.000000
     10          6           0       -1.245659   -0.702032    0.000000
     11          6           0        0.000000    1.421661    0.000000
     12          6           0       -1.215794    0.738250    0.000000
     13          6           0        1.202198   -0.798328    0.000000
     14          6           0       -0.060606   -1.449721    0.000000
     15          1           0        0.989492    3.349026    0.000000
     16          1           0       -1.105155    4.690820    0.000000
     17          1           0       -3.281847    3.472265    0.000000
     18          1           0       -3.338432    1.010281    0.000000
     19          1           0       -2.202201   -1.205616    0.000000
     20          1           0       -1.051709   -3.362351    0.000000
     21          1           0        1.035583   -4.673498    0.000000
     22          1           0        3.222385   -3.513752    0.000000
     23          1           0        3.322497   -1.051368    0.000000
     24          1           0        1.874783    1.047025    0.860700
     25          1           0        1.874783    1.047025   -0.860700
 ---------------------------------------------------------------------

 SCF Done:  E(RM062X) =  -539.756351646     A.U. after   15 cycles

 Excitation energies and oscillator strengths:

 Excited State   1:      Singlet-A'     2.7163 eV  456.45 nm  f=0.0216  <S**2>=0.000
      47 -> 48         0.70362
 This state for optimization and/or second-order correction.
 Total Energy, E(TD-HF/TD-DFT) =  -539.656530944
 Copying the excited state density for this state as the 1-particle RhoCI density.

 The electronic state is 1-A'.
 Alpha  occ. eigenvalues --  -10.77624 -10.73692 -10.72826 -10.72769 -10.72071
 Alpha  occ. eigenvalues --  -10.71794 -10.71764 -10.70997 -10.70946 -10.70253
 Alpha  occ. eigenvalues --  -10.70169 -10.69880 -10.69777 -10.69391  -1.16480
 Alpha  occ. eigenvalues --   -1.12454  -1.06941  -1.05765  -1.01296  -1.00302
 Alpha  occ. eigenvalues --   -0.95648  -0.91030  -0.86431  -0.85886  -0.83786
 Alpha  occ. eigenvalues --   -0.78354  -0.76076  -0.74382  -0.69713  -0.69288
 Alpha  occ. eigenvalues --   -0.68370  -0.68102  -0.68101  -0.65082  -0.64236
 Alpha  occ. eigenvalues --   -0.62821  -0.61687  -0.60344  -0.59372  -0.59141
 Alpha  occ. eigenvalues --   -0.56916  -0.55258  -0.54634  -0.52443  -0.47053
 Alpha  occ. eigenvalues --   -0.46111  -0.44042
 Alpha virt. eigenvalues --   -0.26108  -0.14665  -0.14085  -0.12769  -0.11185
 Alpha virt. eigenvalues --   -0.10088  -0.09248  -0.07968  -0.07948  -0.07480
 Alpha virt. eigenvalues --   -0.07205  -0.07137  -0.05646  -0.05576  -0.05343

 Mulliken charges:
               1
     1  C    0.109623
     2  C   -0.411430
     3  C   -0.443707
     4  C   -0.005792
     5  C    0.021099
     6  C   -0.434364
     7  C   -0.402140
     8  C    0.075759
     9  C   -0.349102
    10  C    0.081733
    11  C   -0.608159
    12  C    0.678600
    13  C   -0.649659
    14  C    0.718517
    15  H    0.235692
    16  H    0.252848
    17  H    0.246175
    18  H    0.219394
    19  H    0.189988
    20  H    0.224816
    21  H    0.251531
    22  H    0.259622
    23  H    0.239516
    24  H    0.249720
    25  H    0.249720
 Sum of Mulliken charges =   1.00000

 Dipole moment (field-independent basis, Debye):
    X=              0.2322    Y=             -0.8257    Z=              0.0000  Tot=              0.8577
 Quadrupole moment (field-independent basis, Debye-Ang):
   XX=            -51.0804   YY=            -36.2263   ZZ=            -84.1365
   XY=            -10.2189   XZ=              0.0000   YZ=              0.0000

 Normal termination of Gaussian 16 at Wed Jul 27 12:37:24 2022.
