 Gaussian 16, Revision C.01,
 Gaussian 16:  ES64L-G16RevC.01  3-Jul-2019

 ---------------------------------------------------------------
 #n M062X/6-311++G(d,p) TD(NStates=1) EmpiricalDispersion=GD3 SP
 ---------------------------------------------------------------

 -------
 SP_-100
 -------
 Symbolic Z-matrix:
 Charge =  1 Multiplicity = 1

                         Standard orientation:
 ---------------------------------------------------------------------
 Center     Atomic      Atomic             Coordinates (Angstroms)
 Number     Number       Type             X           Y           Z
 ---------------------------------------------------------------------
      1          6           0       -2.357761   -1.546088    0.000000
      2          6           0       -2.300211   -2.938726    0.000000
      3          6           0       -1.068504   -3.593656    0.000000
      4          6           0        0.093926   -2.867591    0.000000
      5          6           0        2.368543    1.502312    0.000000
      6          6           0        2.336994    2.939684    0.000000
      7          6           0        1.138212    3.616824    0.000000
      8          6           0       -0.025973    2.859308    0.000000
      9          6           0       -1.277031    0.691828    0.000000
     10          6           0        1.243130   -0.706350    0.000000
     11          6           0       -1.203547   -0.799193    0.000000
     12          6           0        0.060970   -1.452722    0.000000
     13          6           0        0.000000    1.419681    0.000000
     14          6           0        1.214265    0.737380    0.000000
     15          1           0       -3.320701   -1.050438    0.000000
     16          1           0       -3.216428   -3.511813    0.000000
     17          1           0       -1.033362   -4.673972    0.000000
     18          1           0        1.055240   -3.364446    0.000000
     19          1           0        2.200426   -1.208772    0.000000
     20          1           0        3.334744    1.012828    0.000000
     21          1           0        3.277103    3.474630    0.000000
     22          1           0        1.100363    4.695178    0.000000
     23          1           0       -0.993748    3.346937    0.000000
     24          1           0       -1.870857    1.051861    0.859325
     25          1           0       -1.870857    1.051861   -0.859325
 ---------------------------------------------------------------------

 SCF Done:  E(RM062X) =  -539.754871511     A.U. after   15 cycles

 Excitation energies and oscillator strengths:

 Excited State   1:      Singlet-A'     2.6871 eV  461.41 nm  f=0.0206  <S**2>=0.000
      47 -> 48         0.70353
 This state for optimization and/or second-order correction.
 Total Energy, E(TD-HF/TD-DFT) =  -539.656123037
 Copying the excited state density for this state as the 1-particle RhoCI density.

 The electronic state is 1-A'.
 Alpha  occ. eigenvalues --  -10.77594 -10.73726 -10.72806 -10.72721 -10.71993
 Alpha  occ. eigenvalues --  -10.71935 -10.71823 -10.70980 -10.70868 -10.70200
 Alpha  occ. eigenvalues --  -10.70140 -10.69912 -10.69745 -10.69341  -1.16534
 Alpha  occ. eigenvalues --   -1.12478  -1.06938  -1.05846  -1.01291  -1.00388
 Alpha  occ. eigenvalues --   -0.95600  -0.91037  -0.86440  -0.85896  -0.83787
 Alpha  occ. eigenvalues --   -0.78345  -0.76129  -0.74376  -0.69746  -0.69310
 Alpha  occ. eigenvalues --   -0.68342  -0.68089  -0.68089  -0.65194  -0.64242
 Alpha  occ. eigenvalues --   -0.62798  -0.61639  -0.60398  -0.59302  -0.59149
 Alpha  occ. eigenvalues --   -0.56941  -0.55263  -0.54594  -0.52439  -0.47203
 Alpha  occ. eigenvalues --   -0.46117  -0.43895
 Alpha virt. eigenvalues --   -0.26099  -0.14668  -0.14079  -0.12763  -0.11189
 Alpha virt. eigenvalues --   -0.10094  -0.09254  -0.07964  -0.07932  -0.07483
 Alpha virt. eigenvalues --   -0.07212  -0.07138  -0.05645  -0.05576  -0.05350

 Mulliken charges:
               1
     1  C    0.073825
     2  C   -0.401777
     3  C   -0.433691
     4  C    0.031189
     5  C   -0.001872
     6  C   -0.443804
     7  C   -0.413079
     8  C    0.114777
     9  C   -0.337812
    10  C    0.087529
    11  C   -0.654701
    12  C    0.709577
    13  C   -0.609979
    14  C    0.659971
    15  H    0.239615
    16  H    0.260262
    17  H    0.252054
    18  H    0.225318
    19  H    0.189627
    20  H    0.218875
    21  H    0.245799
    22  H    0.252392
    23  H    0.235170
    24  H    0.250367
    25  H    0.250367
 Sum of Mulliken charges =   1.00000

 Dipole moment (field-independent basis, Debye):
    X=             -0.3033    Y=             -0.9442    Z=              0.0000  Tot=              0.9917
 Quadrupole moment (field-independent basis, Debye-Ang):
   XX=            -51.1514   YY=            -36.1557   ZZ=            -84.1331
   XY=             10.1646   XZ=              0.0000   YZ=             -0.0000

 Normal termination of Gaussian 16 at Wed Jul 27 10:17:34 2022.
