 Gaussian 16, Revision C.01,
 Gaussian 16:  ES64L-G16RevC.01  3-Jul-2019

 ---------------------------------------------------------------
 #n M062X/6-311++G(d,p) TD(NStates=1) EmpiricalDispersion=GD3 SP
 ---------------------------------------------------------------

 ------
 SP_125
 ------
 Symbolic Z-matrix:
 Charge =  1 Multiplicity = 1

                         Standard orientation:
 ---------------------------------------------------------------------
 Center     Atomic      Atomic             Coordinates (Angstroms)
 Number     Number       Type             X           Y           Z
 ---------------------------------------------------------------------
      1          6           0        0.019181    2.848186    0.000000
      2          6           0       -1.153511    3.591611    0.000000
      3          6           0       -2.363213    2.917934    0.000000
      4          6           0       -2.394820    1.504513    0.000000
      5          6           0       -0.081452   -2.845403    0.000000
      6          6           0        1.098518   -3.588710    0.000000
      7          6           0        2.330184   -2.944795    0.000000
      8          6           0        2.372297   -1.555550    0.000000
      9          6           0        1.287802    0.692578    0.000000
     10          6           0       -1.255115   -0.684504    0.000000
     11          6           0        0.000000    1.428960    0.000000
     12          6           0       -1.223785    0.742488    0.000000
     13          6           0        1.196375   -0.794407    0.000000
     14          6           0       -0.059434   -1.439712    0.000000
     15          1           0        0.978706    3.350835    0.000000
     16          1           0       -1.119681    4.670634    0.000000
     17          1           0       -3.296006    3.463874    0.000000
     18          1           0       -3.353254    1.001200    0.000000
     19          1           0       -2.208958   -1.192961    0.000000
     20          1           0       -1.036366   -3.354773    0.000000
     21          1           0        1.048549   -4.668135    0.000000
     22          1           0        3.246921   -3.515807    0.000000
     23          1           0        3.327920   -1.045916    0.000000
     24          1           0        1.887003    1.025959    0.861800
     25          1           0        1.887003    1.025959   -0.861800
 ---------------------------------------------------------------------

 SCF Done:  E(RM062X) =  -539.759813363     A.U. after   15 cycles

 Excitation energies and oscillator strengths:

 Excited State   1:      Singlet-A'     2.8088 eV  441.41 nm  f=0.0270  <S**2>=0.000
      47 -> 48         0.70410
 This state for optimization and/or second-order correction.
 Total Energy, E(TD-HF/TD-DFT) =  -539.656591859
 Copying the excited state density for this state as the 1-particle RhoCI density.

 The electronic state is 1-A'.
 Alpha  occ. eigenvalues --  -10.77680 -10.73437 -10.73147 -10.72568 -10.72334
 Alpha  occ. eigenvalues --  -10.71510 -10.71255 -10.71236 -10.71008 -10.70741
 Alpha  occ. eigenvalues --  -10.70039 -10.69908 -10.69725 -10.69562  -1.16398
 Alpha  occ. eigenvalues --   -1.12433  -1.06946  -1.05653  -1.01311  -1.00142
 Alpha  occ. eigenvalues --   -0.95773  -0.91034  -0.86414  -0.85881  -0.83799
 Alpha  occ. eigenvalues --   -0.78385  -0.75988  -0.74409  -0.69601  -0.69239
 Alpha  occ. eigenvalues --   -0.68471  -0.68163  -0.68117  -0.64774  -0.64255
 Alpha  occ. eigenvalues --   -0.62961  -0.61841  -0.60112  -0.59607  -0.59107
 Alpha  occ. eigenvalues --   -0.56875  -0.55234  -0.54776  -0.52445  -0.46650
 Alpha  occ. eigenvalues --   -0.46069  -0.44465
 Alpha virt. eigenvalues --   -0.26109  -0.14664  -0.14097  -0.12777  -0.11176
 Alpha virt. eigenvalues --   -0.10080  -0.09232  -0.07980  -0.07977  -0.07475
 Alpha virt. eigenvalues --   -0.07197  -0.07140  -0.05646  -0.05578  -0.05330

 Mulliken charges:
               1
     1  C    0.096127
     2  C   -0.407359
     3  C   -0.441478
     4  C   -0.001409
     5  C    0.007177
     6  C   -0.438213
     7  C   -0.404414
     8  C    0.084908
     9  C   -0.355390
    10  C    0.080226
    11  C   -0.621302
    12  C    0.702662
    13  C   -0.635546
    14  C    0.715743
    15  H    0.237052
    16  H    0.255028
    17  H    0.247896
    18  H    0.221170
    19  H    0.190591
    20  H    0.222965
    21  H    0.249685
    22  H    0.257298
    23  H    0.238346
    24  H    0.249120
    25  H    0.249120
 Sum of Mulliken charges =   1.00000

 Dipole moment (field-independent basis, Debye):
    X=             -0.0390    Y=             -0.3386    Z=              0.0000  Tot=              0.3409
 Quadrupole moment (field-independent basis, Debye-Ang):
   XX=            -50.7915   YY=            -36.5493   ZZ=            -84.1431
   XY=            -10.4026   XZ=              0.0000   YZ=              0.0000

 Normal termination of Gaussian 16 at Wed Jul 27 12:43:29 2022.
