 Gaussian 16, Revision C.01,
 Gaussian 16:  ES64L-G16RevC.01  3-Jul-2019

 ---------------------------------------------------------------
 #n M062X/6-311++G(d,p) TD(NStates=1) EmpiricalDispersion=GD3 SP
 ---------------------------------------------------------------

 -------
 SP_-125
 -------
 Symbolic Z-matrix:
 Charge =  1 Multiplicity = 1

                         Standard orientation:
 ---------------------------------------------------------------------
 Center     Atomic      Atomic             Coordinates (Angstroms)
 Number     Number       Type             X           Y           Z
 ---------------------------------------------------------------------
      1          6           0       -2.357594   -1.545088    0.000000
      2          6           0       -2.300167   -2.938204    0.000000
      3          6           0       -1.068834   -3.593147    0.000000
      4          6           0        0.093838   -2.867500    0.000000
      5          6           0        2.368444    1.502296    0.000000
      6          6           0        2.336437    2.939634    0.000000
      7          6           0        1.137866    3.616478    0.000000
      8          6           0       -0.026657    2.858609    0.000000
      9          6           0       -1.275091    0.690790    0.000000
     10          6           0        1.243037   -0.706313    0.000000
     11          6           0       -1.203495   -0.799127    0.000000
     12          6           0        0.060999   -1.452968    0.000000
     13          6           0        0.000000    1.419604    0.000000
     14          6           0        1.214498    0.737477    0.000000
     15          1           0       -3.320482   -1.049285    0.000000
     16          1           0       -3.216519   -3.511102    0.000000
     17          1           0       -1.033881   -4.673538    0.000000
     18          1           0        1.055077   -3.364551    0.000000
     19          1           0        2.200373   -1.208766    0.000000
     20          1           0        3.334757    1.012970    0.000000
     21          1           0        3.276510    3.474763    0.000000
     22          1           0        1.099803    4.694837    0.000000
     23          1           0       -0.994521    3.346126    0.000000
     24          1           0       -1.870405    1.051644    0.858775
     25          1           0       -1.870405    1.051644   -0.858775
 ---------------------------------------------------------------------

 SCF Done:  E(RM062X) =  -539.754828637     A.U. after   15 cycles

 Excitation energies and oscillator strengths:

 Excited State   1:      Singlet-A'     2.6876 eV  461.32 nm  f=0.0208  <S**2>=0.000
      47 -> 48         0.70352
 This state for optimization and/or second-order correction.
 Total Energy, E(TD-HF/TD-DFT) =  -539.656060762
 Copying the excited state density for this state as the 1-particle RhoCI density.

 The electronic state is 1-A'.
 Alpha  occ. eigenvalues --  -10.77589 -10.73712 -10.72801 -10.72709 -10.71989
 Alpha  occ. eigenvalues --  -10.71937 -10.71822 -10.70974 -10.70866 -10.70198
 Alpha  occ. eigenvalues --  -10.70142 -10.69909 -10.69745 -10.69337  -1.16546
 Alpha  occ. eigenvalues --   -1.12486  -1.06938  -1.05866  -1.01292  -1.00402
 Alpha  occ. eigenvalues --   -0.95599  -0.91042  -0.86441  -0.85900  -0.83792
 Alpha  occ. eigenvalues --   -0.78347  -0.76141  -0.74378  -0.69742  -0.69312
 Alpha  occ. eigenvalues --   -0.68346  -0.68094  -0.68086  -0.65199  -0.64247
 Alpha  occ. eigenvalues --   -0.62810  -0.61645  -0.60391  -0.59301  -0.59147
 Alpha  occ. eigenvalues --   -0.56946  -0.55262  -0.54601  -0.52437  -0.47209
 Alpha  occ. eigenvalues --   -0.46116  -0.43891
 Alpha virt. eigenvalues --   -0.26094  -0.14669  -0.14079  -0.12762  -0.11190
 Alpha virt. eigenvalues --   -0.10095  -0.09254  -0.07964  -0.07929  -0.07483
 Alpha virt. eigenvalues --   -0.07213  -0.07139  -0.05645  -0.05577  -0.05351

 Mulliken charges:
               1
     1  C    0.073769
     2  C   -0.401801
     3  C   -0.433890
     4  C    0.034687
     5  C    0.000857
     6  C   -0.443649
     7  C   -0.413267
     8  C    0.115424
     9  C   -0.332574
    10  C    0.090522
    11  C   -0.655437
    12  C    0.704490
    13  C   -0.612552
    14  C    0.653264
    15  H    0.239510
    16  H    0.260296
    17  H    0.252085
    18  H    0.225337
    19  H    0.189561
    20  H    0.218833
    21  H    0.245826
    22  H    0.252434
    23  H    0.235062
    24  H    0.250608
    25  H    0.250608
 Sum of Mulliken charges =   1.00000

 Dipole moment (field-independent basis, Debye):
    X=             -0.3049    Y=             -0.9432    Z=              0.0000  Tot=              0.9912
 Quadrupole moment (field-independent basis, Debye-Ang):
   XX=            -51.1514   YY=            -36.1641   ZZ=            -84.1326
   XY=             10.1584   XZ=              0.0000   YZ=             -0.0000

 Normal termination of Gaussian 16 at Wed Jul 27 09:59:35 2022.
