 Gaussian 16, Revision C.01,
 Gaussian 16:  ES64L-G16RevC.01  3-Jul-2019

 ---------------------------------------------------------------
 #n M062X/6-311++G(d,p) TD(NStates=1) EmpiricalDispersion=GD3 SP
 ---------------------------------------------------------------

 ------
 SP_-75
 ------
 Symbolic Z-matrix:
 Charge =  1 Multiplicity = 1

                         Standard orientation:
 ---------------------------------------------------------------------
 Center     Atomic      Atomic             Coordinates (Angstroms)
 Number     Number       Type             X           Y           Z
 ---------------------------------------------------------------------
      1          6           0       -2.368613   -1.549054    0.000000
      2          6           0       -2.324001   -2.941186    0.000000
      3          6           0       -1.094063   -3.587367    0.000000
      4          6           0        0.083502   -2.849433    0.000000
      5          6           0        2.389116    1.503987    0.000000
      6          6           0        2.355439    2.922049    0.000000
      7          6           0        1.148896    3.595052    0.000000
      8          6           0       -0.023672    2.847201    0.000000
      9          6           0       -1.276662    0.687754    0.000000
     10          6           0        1.252264   -0.688709    0.000000
     11          6           0       -1.197583   -0.795056    0.000000
     12          6           0        0.059842   -1.443455    0.000000
     13          6           0        0.000000    1.426740    0.000000
     14          6           0        1.222953    0.741899    0.000000
     15          1           0       -3.325461   -1.041504    0.000000
     16          1           0       -3.241256   -3.511731    0.000000
     17          1           0       -1.047942   -4.667299    0.000000
     18          1           0        1.039349   -3.357214    0.000000
     19          1           0        2.206980   -1.196114    0.000000
     20          1           0        3.349622    1.004148    0.000000
     21          1           0        3.289528    3.466620    0.000000
     22          1           0        1.113284    4.673971    0.000000
     23          1           0       -0.985259    3.346341    0.000000
     24          1           0       -1.881675    1.030128    0.858775
     25          1           0       -1.881675    1.030128   -0.858775
 ---------------------------------------------------------------------

 SCF Done:  E(RM062X) =  -539.759182575     A.U. after   15 cycles

 Excitation energies and oscillator strengths:

 Excited State   1:      Singlet-A'     2.7920 eV  444.07 nm  f=0.0264  <S**2>=0.000
      47 -> 48         0.70396
 This state for optimization and/or second-order correction.
 Total Energy, E(TD-HF/TD-DFT) =  -539.656577627
 Copying the excited state density for this state as the 1-particle RhoCI density.

 The electronic state is 1-A'.
 Alpha  occ. eigenvalues --  -10.77648 -10.73435 -10.73003 -10.72598 -10.72248
 Alpha  occ. eigenvalues --  -10.71569 -10.71399 -10.71157 -10.70970 -10.70627
 Alpha  occ. eigenvalues --  -10.70069 -10.69874 -10.69748 -10.69501  -1.16477
 Alpha  occ. eigenvalues --   -1.12480  -1.06944  -1.05779  -1.01310  -1.00245
 Alpha  occ. eigenvalues --   -0.95744  -0.91060  -0.86425  -0.85906  -0.83817
 Alpha  occ. eigenvalues --   -0.78392  -0.76063  -0.74412  -0.69592  -0.69262
 Alpha  occ. eigenvalues --   -0.68476  -0.68179  -0.68093  -0.64850  -0.64276
 Alpha  occ. eigenvalues --   -0.63025  -0.61827  -0.60106  -0.59568  -0.59099
 Alpha  occ. eigenvalues --   -0.56915  -0.55228  -0.54797  -0.52436  -0.46757
 Alpha  occ. eigenvalues --   -0.46077  -0.44356
 Alpha virt. eigenvalues --   -0.26083  -0.14671  -0.14093  -0.12771  -0.11181
 Alpha virt. eigenvalues --   -0.10090  -0.09235  -0.07979  -0.07959  -0.07478
 Alpha virt. eigenvalues --   -0.07207  -0.07145  -0.05642  -0.05582  -0.05337

 Mulliken charges:
               1
     1  C    0.084280
     2  C   -0.404645
     3  C   -0.437752
     4  C    0.026481
     5  C    0.011657
     6  C   -0.441865
     7  C   -0.409539
     8  C    0.102413
     9  C   -0.327541
    10  C    0.096172
    11  C   -0.646900
    12  C    0.689917
    13  C   -0.629663
    14  C    0.667008
    15  H    0.238123
    16  H    0.258066
    17  H    0.250299
    18  H    0.223414
    19  H    0.190176
    20  H    0.220587
    21  H    0.247605
    22  H    0.254681
    23  H    0.236188
    24  H    0.250420
    25  H    0.250420
 Sum of Mulliken charges =   1.00000

 Dipole moment (field-independent basis, Debye):
    X=             -0.0363    Y=             -0.4565    Z=              0.0000  Tot=              0.4579
 Quadrupole moment (field-independent basis, Debye-Ang):
   XX=            -50.8638   YY=            -36.5140   ZZ=            -84.1397
   XY=             10.3245   XZ=             -0.0000   YZ=              0.0000

 Normal termination of Gaussian 16 at Wed Jul 27 10:29:25 2022.
