 Gaussian 16, Revision C.01,
 Gaussian 16:  ES64L-G16RevC.01  3-Jul-2019

 ---------------------------------------------------------------
 #n M062X/6-311++G(d,p) TD(NStates=1) EmpiricalDispersion=GD3 SP
 ---------------------------------------------------------------

 -----
 SP_25
 -----
 Symbolic Z-matrix:
 Charge =  1 Multiplicity = 1

                         Standard orientation:
 ---------------------------------------------------------------------
 Center     Atomic      Atomic             Coordinates (Angstroms)
 Number     Number       Type             X           Y           Z
 ---------------------------------------------------------------------
      1          6           0       -2.366621   -1.552563    0.000000
      2          6           0       -2.318250   -2.942795    0.000000
      3          6           0       -1.086288   -3.591116    0.000000
      4          6           0        0.086459   -2.854366    0.000000
      5          6           0        2.384390    1.503640    0.000000
      6          6           0        2.353211    2.926665    0.000000
      7          6           0        1.147721    3.601963    0.000000
      8          6           0       -0.021315    2.853186    0.000000
      9          6           0       -1.284983    0.693211    0.000000
     10          6           0        1.250361   -0.693277    0.000000
     11          6           0       -1.199298   -0.796361    0.000000
     12          6           0        0.059996   -1.444724    0.000000
     13          6           0        0.000000    1.425300    0.000000
     14          6           0        1.219785    0.740357    0.000000
     15          1           0       -3.325221   -1.048628    0.000000
     16          1           0       -3.234677   -3.514780    0.000000
     17          1           0       -1.042108   -4.670821    0.000000
     18          1           0        1.044000   -3.358586    0.000000
     19          1           0        2.205552   -1.199306    0.000000
     20          1           0        3.345849    1.005718    0.000000
     21          1           0        3.288950    3.468043    0.000000
     22          1           0        1.112464    4.680716    0.000000
     23          1           0       -0.984078    3.349934    0.000000
     24          1           0       -1.880869    1.036486    0.861250
     25          1           0       -1.880869    1.036486   -0.861250
 ---------------------------------------------------------------------

 SCF Done:  E(RM062X) =  -539.758522569     A.U. after   15 cycles

 Excitation energies and oscillator strengths:

 Excited State   1:      Singlet-A'     2.7700 eV  447.60 nm  f=0.0243  <S**2>=0.000
      47 -> 48         0.70382
 This state for optimization and/or second-order correction.
 Total Energy, E(TD-HF/TD-DFT) =  -539.656728136
 Copying the excited state density for this state as the 1-particle RhoCI density.

 The electronic state is 1-A'.
 Alpha  occ. eigenvalues --  -10.77658 -10.73567 -10.72986 -10.72671 -10.72205
 Alpha  occ. eigenvalues --  -10.71639 -10.71523 -10.71092 -10.71002 -10.70494
 Alpha  occ. eigenvalues --  -10.70105 -10.69842 -10.69803 -10.69477  -1.16432
 Alpha  occ. eigenvalues --   -1.12443  -1.06944  -1.05700  -1.01305  -1.00207
 Alpha  occ. eigenvalues --   -0.95724  -0.91034  -0.86421  -0.85884  -0.83795
 Alpha  occ. eigenvalues --   -0.78374  -0.76024  -0.74399  -0.69644  -0.69259
 Alpha  occ. eigenvalues --   -0.68432  -0.68140  -0.68110  -0.64903  -0.64245
 Alpha  occ. eigenvalues --   -0.62905  -0.61782  -0.60215  -0.59501  -0.59120
 Alpha  occ. eigenvalues --   -0.56893  -0.55246  -0.54721  -0.52444  -0.46814
 Alpha  occ. eigenvalues --   -0.46091  -0.44287
 Alpha virt. eigenvalues --   -0.26108  -0.14665  -0.14093  -0.12774  -0.11180
 Alpha virt. eigenvalues --   -0.10083  -0.09238  -0.07976  -0.07965  -0.07477
 Alpha virt. eigenvalues --   -0.07200  -0.07139  -0.05646  -0.05577  -0.05335

 Mulliken charges:
               1
     1  C    0.080410
     2  C   -0.403248
     3  C   -0.436352
     4  C    0.014218
     5  C   -0.003521
     6  C   -0.442733
     7  C   -0.409399
     8  C    0.102686
     9  C   -0.351764
    10  C    0.081587
    11  C   -0.643111
    12  C    0.717108
    13  C   -0.615299
    14  C    0.690795
    15  H    0.238923
    16  H    0.258465
    17  H    0.250610
    18  H    0.223880
    19  H    0.190350
    20  H    0.220273
    21  H    0.247033
    22  H    0.253934
    23  H    0.236359
    24  H    0.249399
    25  H    0.249399
 Sum of Mulliken charges =   1.00000

 Dipole moment (field-independent basis, Debye):
    X=             -0.0964    Y=             -0.5830    Z=              0.0000  Tot=              0.5909
 Quadrupole moment (field-independent basis, Debye-Ang):
   XX=            -50.9367   YY=            -36.3933   ZZ=            -84.1405
   XY=             10.3078   XZ=              0.0000   YZ=             -0.0000

 Normal termination of Gaussian 16 at Wed Jul 27 11:41:06 2022.
