 Gaussian 16, Revision C.01,
 Gaussian 16:  ES64L-G16RevC.01  3-Jul-2019

 ---------------------------------------------------------------
 #n M062X/6-311++G(d,p) TD(NStates=1) EmpiricalDispersion=GD3 SP
 ---------------------------------------------------------------

 -------
 SP_-125
 -------
 Symbolic Z-matrix:
 Charge =  1 Multiplicity = 1

                         Standard orientation:
 ---------------------------------------------------------------------
 Center     Atomic      Atomic             Coordinates (Angstroms)
 Number     Number       Type             X           Y           Z
 ---------------------------------------------------------------------
      1          6           0       -2.360264   -1.545577    0.000000
      2          6           0       -2.306108   -2.938693    0.000000
      3          6           0       -1.075321   -3.591456    0.000000
      4          6           0        0.091189   -2.862941    0.000000
      5          6           0        2.373564    1.502715    0.000000
      6          6           0        2.340927    2.935215    0.000000
      7          6           0        1.140475    3.610948    0.000000
      8          6           0       -0.026237    2.855407    0.000000
      9          6           0       -1.274509    0.689513    0.000000
     10          6           0        1.245283   -0.701890    0.000000
     11          6           0       -1.201995   -0.798068    0.000000
     12          6           0        0.060713   -1.450712    0.000000
     13          6           0        0.000000    1.421348    0.000000
     14          6           0        1.216727    0.738632    0.000000
     15          1           0       -3.321621   -1.046755    0.000000
     16          1           0       -3.222756   -3.510905    0.000000
     17          1           0       -1.037674   -4.671761    0.000000
     18          1           0        1.051046   -3.362779    0.000000
     19          1           0        2.201984   -1.205601    0.000000
     20          1           0        3.338485    1.010832    0.000000
     21          1           0        3.279481    3.472788    0.000000
     22          1           0        1.102921    4.689450    0.000000
     23          1           0       -0.992580    3.345780    0.000000
     24          1           0       -1.872977    1.046154    0.858500
     25          1           0       -1.872977    1.046154   -0.858500
 ---------------------------------------------------------------------

 SCF Done:  E(RM062X) =  -539.756222629     A.U. after   15 cycles

 Excitation energies and oscillator strengths:

 Excited State   1:      Singlet-A'     2.7180 eV  456.16 nm  f=0.0221  <S**2>=0.000
      47 -> 48         0.70359
 This state for optimization and/or second-order correction.
 Total Energy, E(TD-HF/TD-DFT) =  -539.656339092
 Copying the excited state density for this state as the 1-particle RhoCI density.

 The electronic state is 1-A'.
 Alpha  occ. eigenvalues --  -10.77606 -10.73637 -10.72777 -10.72751 -10.72053
 Alpha  occ. eigenvalues --  -10.71802 -10.71760 -10.70969 -10.70939 -10.70262
 Alpha  occ. eigenvalues --  -10.70166 -10.69867 -10.69777 -10.69376  -1.16530
 Alpha  occ. eigenvalues --   -1.12489  -1.06940  -1.05848  -1.01298  -1.00360
 Alpha  occ. eigenvalues --   -0.95643  -0.91051  -0.86437  -0.85905  -0.83802
 Alpha  occ. eigenvalues --   -0.78363  -0.76122  -0.74389  -0.69695  -0.69298
 Alpha  occ. eigenvalues --   -0.68387  -0.68122  -0.68086  -0.65102  -0.64256
 Alpha  occ. eigenvalues --   -0.62876  -0.61706  -0.60313  -0.59368  -0.59131
 Alpha  occ. eigenvalues --   -0.56940  -0.55255  -0.54662  -0.52436  -0.47078
 Alpha  occ. eigenvalues --   -0.46106  -0.44023
 Alpha virt. eigenvalues --   -0.26088  -0.14670  -0.14083  -0.12764  -0.11188
 Alpha virt. eigenvalues --   -0.10094  -0.09248  -0.07969  -0.07937  -0.07482
 Alpha virt. eigenvalues --   -0.07212  -0.07142  -0.05644  -0.05579  -0.05347

 Mulliken charges:
               1
     1  C    0.076202
     2  C   -0.402467
     3  C   -0.435036
     4  C    0.034587
     5  C    0.005016
     6  C   -0.443200
     7  C   -0.412360
     8  C    0.112349
     9  C   -0.328295
    10  C    0.093825
    11  C   -0.653717
    12  C    0.698274
    13  C   -0.618487
    14  C    0.653051
    15  H    0.239104
    16  H    0.259760
    17  H    0.251656
    18  H    0.224866
    19  H    0.189727
    20  H    0.219239
    21  H    0.246283
    22  H    0.253015
    23  H    0.235273
    24  H    0.250668
    25  H    0.250668
 Sum of Mulliken charges =   1.00000

 Dipole moment (field-independent basis, Debye):
    X=             -0.2383    Y=             -0.8217    Z=             -0.0000  Tot=              0.8556
 Quadrupole moment (field-independent basis, Debye-Ang):
   XX=            -51.0802   YY=            -36.2598   ZZ=            -84.1347
   XY=             10.1946   XZ=              0.0000   YZ=             -0.0000

 Normal termination of Gaussian 16 at Wed Jul 27 09:58:02 2022.
