 Gaussian 16, Revision C.01,
 Gaussian 16:  ES64L-G16RevC.01  3-Jul-2019

 ---------------------------------------------------------------
 #n M062X/6-311++G(d,p) TD(NStates=1) EmpiricalDispersion=GD3 SP
 ---------------------------------------------------------------

 -------
 SP_-100
 -------
 Symbolic Z-matrix:
 Charge =  1 Multiplicity = 1

                         Standard orientation:
 ---------------------------------------------------------------------
 Center     Atomic      Atomic             Coordinates (Angstroms)
 Number     Number       Type             X           Y           Z
 ---------------------------------------------------------------------
      1          6           0       -2.368443   -1.548053    0.000000
      2          6           0       -2.323955   -2.940664    0.000000
      3          6           0       -1.094392   -3.586857    0.000000
      4          6           0        0.083415   -2.849342    0.000000
      5          6           0        2.389018    1.503971    0.000000
      6          6           0        2.354882    2.922001    0.000000
      7          6           0        1.148550    3.594707    0.000000
      8          6           0       -0.024359    2.846505    0.000000
      9          6           0       -1.274726    0.686709    0.000000
     10          6           0        1.252171   -0.688672    0.000000
     11          6           0       -1.197532   -0.794990    0.000000
     12          6           0        0.059869   -1.443702    0.000000
     13          6           0        0.000000    1.426663    0.000000
     14          6           0        1.223186    0.741995    0.000000
     15          1           0       -3.325238   -1.040351    0.000000
     16          1           0       -3.241345   -3.511019    0.000000
     17          1           0       -1.048461   -4.666863    0.000000
     18          1           0        1.039185   -3.357319    0.000000
     19          1           0        2.206927   -1.196107    0.000000
     20          1           0        3.349636    1.004289    0.000000
     21          1           0        3.288937    3.466755    0.000000
     22          1           0        1.112723    4.673632    0.000000
     23          1           0       -0.986034    3.345533    0.000000
     24          1           0       -1.881224    1.029910    0.858225
     25          1           0       -1.881224    1.029910   -0.858225
 ---------------------------------------------------------------------

 SCF Done:  E(RM062X) =  -539.759137985     A.U. after   15 cycles

 Excitation energies and oscillator strengths:

 Excited State   1:      Singlet-A'     2.7920 eV  444.07 nm  f=0.0265  <S**2>=0.000
      47 -> 48         0.70395
 This state for optimization and/or second-order correction.
 Total Energy, E(TD-HF/TD-DFT) =  -539.656533223
 Copying the excited state density for this state as the 1-particle RhoCI density.

 The electronic state is 1-A'.
 Alpha  occ. eigenvalues --  -10.77643 -10.73421 -10.72990 -10.72593 -10.72243
 Alpha  occ. eigenvalues --  -10.71568 -10.71401 -10.71156 -10.70963 -10.70629
 Alpha  occ. eigenvalues --  -10.70068 -10.69874 -10.69745 -10.69498  -1.16490
 Alpha  occ. eigenvalues --   -1.12489  -1.06943  -1.05800  -1.01310  -1.00259
 Alpha  occ. eigenvalues --   -0.95742  -0.91065  -0.86427  -0.85911  -0.83821
 Alpha  occ. eigenvalues --   -0.78394  -0.76075  -0.74413  -0.69586  -0.69265
 Alpha  occ. eigenvalues --   -0.68480  -0.68184  -0.68090  -0.64854  -0.64282
 Alpha  occ. eigenvalues --   -0.63043  -0.61829  -0.60096  -0.59569  -0.59096
 Alpha  occ. eigenvalues --   -0.56922  -0.55225  -0.54805  -0.52435  -0.46764
 Alpha  occ. eigenvalues --   -0.46076  -0.44349
 Alpha virt. eigenvalues --   -0.26079  -0.14672  -0.14092  -0.12770  -0.11182
 Alpha virt. eigenvalues --   -0.10091  -0.09234  -0.07979  -0.07956  -0.07478
 Alpha virt. eigenvalues --   -0.07209  -0.07146  -0.05642  -0.05582  -0.05338

 Mulliken charges:
               1
     1  C    0.084172
     2  C   -0.404605
     3  C   -0.437856
     4  C    0.029927
     5  C    0.014779
     6  C   -0.441803
     7  C   -0.409569
     8  C    0.102631
     9  C   -0.322251
    10  C    0.098959
    11  C   -0.647672
    12  C    0.683948
    13  C   -0.631229
    14  C    0.660268
    15  H    0.238011
    16  H    0.258105
    17  H    0.250330
    18  H    0.223420
    19  H    0.190115
    20  H    0.220567
    21  H    0.247635
    22  H    0.254724
    23  H    0.236073
    24  H    0.250660
    25  H    0.250660
 Sum of Mulliken charges =   1.00000

 Dipole moment (field-independent basis, Debye):
    X=             -0.0379    Y=             -0.4555    Z=             -0.0000  Tot=              0.4571
 Quadrupole moment (field-independent basis, Debye-Ang):
   XX=            -50.8638   YY=            -36.5225   ZZ=            -84.1392
   XY=             10.3184   XZ=              0.0000   YZ=             -0.0000

 Normal termination of Gaussian 16 at Wed Jul 27 10:11:31 2022.
