 Gaussian 16, Revision C.01,
 Gaussian 16:  ES64L-G16RevC.01  3-Jul-2019

 ---------------------------------------------------------------
 #n M062X/6-311++G(d,p) TD(NStates=1) EmpiricalDispersion=GD3 SP
 ---------------------------------------------------------------

 ----
 SP_0
 ----
 Symbolic Z-matrix:
 Charge =  1 Multiplicity = 1

                         Standard orientation:
 ---------------------------------------------------------------------
 Center     Atomic      Atomic             Coordinates (Angstroms)
 Number     Number       Type             X           Y           Z
 ---------------------------------------------------------------------
      1          6           0       -2.366451   -1.551562    0.000000
      2          6           0       -2.318205   -2.942273    0.000000
      3          6           0       -1.086617   -3.590606    0.000000
      4          6           0        0.086372   -2.854274    0.000000
      5          6           0        2.384292    1.503624    0.000000
      6          6           0        2.352654    2.926617    0.000000
      7          6           0        1.147375    3.601618    0.000000
      8          6           0       -0.022001    2.852490    0.000000
      9          6           0       -1.283045    0.692168    0.000000
     10          6           0        1.250268   -0.693239    0.000000
     11          6           0       -1.199247   -0.796295    0.000000
     12          6           0        0.060024   -1.444971    0.000000
     13          6           0        0.000000    1.425223    0.000000
     14          6           0        1.220019    0.740455    0.000000
     15          1           0       -3.324999   -1.047476    0.000000
     16          1           0       -3.234767   -3.514068    0.000000
     17          1           0       -1.042628   -4.670385    0.000000
     18          1           0        1.043837   -3.358691    0.000000
     19          1           0        2.205499   -1.199300    0.000000
     20          1           0        3.345863    1.005859    0.000000
     21          1           0        3.288358    3.468178    0.000000
     22          1           0        1.111904    4.680376    0.000000
     23          1           0       -0.984853    3.349125    0.000000
     24          1           0       -1.880418    1.036268    0.860700
     25          1           0       -1.880418    1.036268   -0.860700
 ---------------------------------------------------------------------

 SCF Done:  E(RM062X) =  -539.758515231     A.U. after   15 cycles

 Excitation energies and oscillator strengths:

 Excited State   1:      Singlet-A'     2.7702 eV  447.57 nm  f=0.0245  <S**2>=0.000
      47 -> 48         0.70382
 This state for optimization and/or second-order correction.
 Total Energy, E(TD-HF/TD-DFT) =  -539.656712945
 Copying the excited state density for this state as the 1-particle RhoCI density.

 The electronic state is 1-A'.
 Alpha  occ. eigenvalues --  -10.77653 -10.73553 -10.72974 -10.72667 -10.72200
 Alpha  occ. eigenvalues --  -10.71638 -10.71525 -10.71091 -10.70995 -10.70496
 Alpha  occ. eigenvalues --  -10.70104 -10.69842 -10.69800 -10.69473  -1.16445
 Alpha  occ. eigenvalues --   -1.12451  -1.06943  -1.05721  -1.01305  -1.00222
 Alpha  occ. eigenvalues --   -0.95722  -0.91039  -0.86422  -0.85889  -0.83799
 Alpha  occ. eigenvalues --   -0.78376  -0.76036  -0.74400  -0.69638  -0.69262
 Alpha  occ. eigenvalues --   -0.68436  -0.68145  -0.68105  -0.64907  -0.64250
 Alpha  occ. eigenvalues --   -0.62922  -0.61785  -0.60205  -0.59502  -0.59117
 Alpha  occ. eigenvalues --   -0.56899  -0.55244  -0.54729  -0.52442  -0.46821
 Alpha  occ. eigenvalues --   -0.46090  -0.44281
 Alpha virt. eigenvalues --   -0.26103  -0.14666  -0.14092  -0.12773  -0.11180
 Alpha virt. eigenvalues --   -0.10085  -0.09238  -0.07976  -0.07963  -0.07477
 Alpha virt. eigenvalues --   -0.07202  -0.07140  -0.05645  -0.05578  -0.05336

 Mulliken charges:
               1
     1  C    0.080895
     2  C   -0.403504
     3  C   -0.436457
     4  C    0.017260
     5  C   -0.000918
     6  C   -0.442658
     7  C   -0.409732
     8  C    0.103549
     9  C   -0.346666
    10  C    0.084717
    11  C   -0.644861
    12  C    0.712291
    13  C   -0.618017
    14  C    0.685177
    15  H    0.238827
    16  H    0.258499
    17  H    0.250640
    18  H    0.223879
    19  H    0.190286
    20  H    0.220240
    21  H    0.247060
    22  H    0.253973
    23  H    0.236262
    24  H    0.249629
    25  H    0.249629
 Sum of Mulliken charges =   1.00000

 Dipole moment (field-independent basis, Debye):
    X=             -0.0979    Y=             -0.5821    Z=             -0.0000  Tot=              0.5903
 Quadrupole moment (field-independent basis, Debye-Ang):
   XX=            -50.9366   YY=            -36.4014   ZZ=            -84.1401
   XY=             10.3018   XZ=              0.0000   YZ=             -0.0000

 Normal termination of Gaussian 16 at Wed Jul 27 11:24:03 2022.
