 Gaussian 16, Revision C.01,
 Gaussian 16:  ES64L-G16RevC.01  3-Jul-2019

 ---------------------------------------------------------------
 #n M062X/6-311++G(d,p) TD(NStates=1) EmpiricalDispersion=GD3 SP
 ---------------------------------------------------------------

 ------
 SP_-50
 ------
 Symbolic Z-matrix:
 Charge =  1 Multiplicity = 1

                         Standard orientation:
 ---------------------------------------------------------------------
 Center     Atomic      Atomic             Coordinates (Angstroms)
 Number     Number       Type             X           Y           Z
 ---------------------------------------------------------------------
      1          6           0        2.493811   -1.350227    0.000000
      2          6           0        3.699634   -0.654497    0.000000
      3          6           0        3.679253    0.732077    0.000000
      4          6           0        2.460986    1.420382    0.000000
      5          6           0       -2.465198    1.394496    0.000000
      6          6           0       -3.687551    0.693970    0.000000
      7          6           0       -3.701856   -0.690080    0.000000
      8          6           0       -2.488694   -1.371507    0.000000
      9          6           0        0.004220   -1.450110    0.000000
     10          6           0        0.000000    1.429048    0.000000
     11          6           0        1.265918   -0.673413    0.000000
     12          6           0        1.237210    0.736675    0.000000
     13          6           0       -1.258050   -0.680520    0.000000
     14          6           0       -1.238364    0.725353    0.000000
     15          1           0        2.496053   -2.433427    0.000000
     16          1           0        4.637065   -1.190767    0.000000
     17          1           0        4.604340    1.291289    0.000000
     18          1           0        2.458822    2.502858    0.000000
     19          1           0       -0.005158    2.510211    0.000000
     20          1           0       -2.476562    2.477057    0.000000
     21          1           0       -4.613725    1.251589    0.000000
     22          1           0       -4.634710   -1.233800    0.000000
     23          1           0       -2.476802   -2.454741    0.000000
     24          1           0        0.001380   -2.145079    0.858775
     25          1           0        0.001380   -2.145079   -0.858775
 ---------------------------------------------------------------------

 SCF Done:  E(RM062X) =  -539.760072844     A.U. after   15 cycles

 Excitation energies and oscillator strengths:

 Excited State   1:      Singlet-A'     2.8188 eV  439.85 nm  f=0.0285  <S**2>=0.000
      47 -> 48         0.70422
 This state for optimization and/or second-order correction.
 Total Energy, E(TD-HF/TD-DFT) =  -539.656483912
 Copying the excited state density for this state as the 1-particle RhoCI density.

 The electronic state is 1-A'.
 Alpha  occ. eigenvalues --  -10.77659 -10.73293 -10.73149 -10.72487 -10.72370
 Alpha  occ. eigenvalues --  -10.71436 -10.71298 -10.71137 -10.70970 -10.70879
 Alpha  occ. eigenvalues --  -10.70004 -10.69939 -10.69666 -10.69584  -1.16463
 Alpha  occ. eigenvalues --   -1.12479  -1.06945  -1.05762  -1.01314  -1.00211
 Alpha  occ. eigenvalues --   -0.95775  -0.91063  -0.86422  -0.85908  -0.83823
 Alpha  occ. eigenvalues --   -0.78401  -0.76047  -0.74419  -0.69556  -0.69251
 Alpha  occ. eigenvalues --   -0.68506  -0.68199  -0.68095  -0.64756  -0.64291
 Alpha  occ. eigenvalues --   -0.63084  -0.61864  -0.59999  -0.59671  -0.59088
 Alpha  occ. eigenvalues --   -0.56908  -0.55213  -0.54845  -0.52436  -0.46650
 Alpha  occ. eigenvalues --   -0.46060  -0.44475
 Alpha virt. eigenvalues --   -0.26081  -0.14671  -0.14095  -0.12772  -0.11180
 Alpha virt. eigenvalues --   -0.10089  -0.09230  -0.07983  -0.07965  -0.07476
 Alpha virt. eigenvalues --   -0.07206  -0.07147  -0.05642  -0.05583  -0.05334

 Mulliken charges:
               1
     1  C    0.090521
     2  C   -0.406058
     3  C   -0.439413
     4  C    0.021782
     5  C    0.016758
     6  C   -0.440782
     7  C   -0.407693
     8  C    0.096537
     9  C   -0.326600
    10  C    0.097290
    11  C   -0.641422
    12  C    0.681252
    13  C   -0.635681
    14  C    0.673530
    15  H    0.237446
    16  H    0.256941
    17  H    0.249396
    18  H    0.222456
    19  H    0.190305
    20  H    0.221511
    21  H    0.248499
    22  H    0.255810
    23  H    0.236801
    24  H    0.250406
    25  H    0.250406
 Sum of Mulliken charges =   1.00000

 Dipole moment (field-independent basis, Debye):
    X=              0.1392    Y=              0.1856    Z=             -0.0000  Tot=              0.2320
 Quadrupole moment (field-independent basis, Debye-Ang):
   XX=            -31.1338   YY=            -56.2564   ZZ=            -84.1413
   XY=              0.1767   XZ=              0.0000   YZ=              0.0000

 Normal termination of Gaussian 16 at Wed Jul 27 10:44:47 2022.
