 Gaussian 16, Revision C.01,
 Gaussian 16:  ES64L-G16RevC.01  3-Jul-2019

 ---------------------------------------------------------------
 #n M062X/6-311++G(d,p) TD(NStates=1) EmpiricalDispersion=GD3 SP
 ---------------------------------------------------------------

 ------
 SP_-25
 ------
 Symbolic Z-matrix:
 Charge =  1 Multiplicity = 1

                         Standard orientation:
 ---------------------------------------------------------------------
 Center     Atomic      Atomic             Coordinates (Angstroms)
 Number     Number       Type             X           Y           Z
 ---------------------------------------------------------------------
      1          6           0       -2.368954   -1.551055    0.000000
      2          6           0       -2.324091   -2.942231    0.000000
      3          6           0       -1.093405   -3.588388    0.000000
      4          6           0        0.083677   -2.849616    0.000000
      5          6           0        2.389312    1.504019    0.000000
      6          6           0        2.356552    2.922145    0.000000
      7          6           0        1.149589    3.595743    0.000000
      8          6           0       -0.022299    2.848593    0.000000
      9          6           0       -1.280535    0.689845    0.000000
     10          6           0        1.252450   -0.688784    0.000000
     11          6           0       -1.197687   -0.795187    0.000000
     12          6           0        0.059788   -1.442963    0.000000
     13          6           0        0.000000    1.426893    0.000000
     14          6           0        1.222485    0.741705    0.000000
     15          1           0       -3.325907   -1.043810    0.000000
     16          1           0       -3.241078   -3.513156    0.000000
     17          1           0       -1.046904   -4.668172    0.000000
     18          1           0        1.039676   -3.357005    0.000000
     19          1           0        2.207086   -1.196126    0.000000
     20          1           0        3.349594    1.003867    0.000000
     21          1           0        3.290712    3.466349    0.000000
     22          1           0        1.114406    4.674649    0.000000
     23          1           0       -0.983709    3.347958    0.000000
     24          1           0       -1.882578    1.030565    0.859875
     25          1           0       -1.882578    1.030565   -0.859875
 ---------------------------------------------------------------------

 SCF Done:  E(RM062X) =  -539.759246064     A.U. after   15 cycles

 Excitation energies and oscillator strengths:

 Excited State   1:      Singlet-A'     2.7920 eV  444.07 nm  f=0.0261  <S**2>=0.000
      47 -> 48         0.70396
 This state for optimization and/or second-order correction.
 Total Energy, E(TD-HF/TD-DFT) =  -539.656642682
 Copying the excited state density for this state as the 1-particle RhoCI density.

 The electronic state is 1-A'.
 Alpha  occ. eigenvalues --  -10.77657 -10.73462 -10.73028 -10.72607 -10.72257
 Alpha  occ. eigenvalues --  -10.71572 -10.71395 -10.71160 -10.70984 -10.70623
 Alpha  occ. eigenvalues --  -10.70070 -10.69874 -10.69754 -10.69509  -1.16451
 Alpha  occ. eigenvalues --   -1.12463  -1.06944  -1.05737  -1.01309  -1.00215
 Alpha  occ. eigenvalues --   -0.95747  -0.91049  -0.86422  -0.85897  -0.83809
 Alpha  occ. eigenvalues --   -0.78387  -0.76040  -0.74409  -0.69602  -0.69256
 Alpha  occ. eigenvalues --   -0.68468  -0.68169  -0.68101  -0.64842  -0.64266
 Alpha  occ. eigenvalues --   -0.62990  -0.61823  -0.60126  -0.59565  -0.59104
 Alpha  occ. eigenvalues --   -0.56903  -0.55233  -0.54780  -0.52439  -0.46742
 Alpha  occ. eigenvalues --   -0.46078  -0.44368
 Alpha virt. eigenvalues --   -0.26093  -0.14668  -0.14094  -0.12773  -0.11180
 Alpha virt. eigenvalues --   -0.10087  -0.09235  -0.07979  -0.07964  -0.07477
 Alpha virt. eigenvalues --   -0.07203  -0.07143  -0.05644  -0.05580  -0.05335

 Mulliken charges:
               1
     1  C    0.084058
     2  C   -0.404503
     3  C   -0.437555
     4  C    0.019877
     5  C    0.005710
     6  C   -0.441981
     7  C   -0.409267
     8  C    0.101562
     9  C   -0.338048
    10  C    0.090328
    11  C   -0.644614
    12  C    0.701194
    13  C   -0.625829
    14  C    0.679717
    15  H    0.238337
    16  H    0.257990
    17  H    0.250238
    18  H    0.223408
    19  H    0.190298
    20  H    0.220635
    21  H    0.247547
    22  H    0.254598
    23  H    0.236406
    24  H    0.249947
    25  H    0.249947
 Sum of Mulliken charges =   1.00000

 Dipole moment (field-independent basis, Debye):
    X=             -0.0332    Y=             -0.4583    Z=             -0.0000  Tot=              0.4595
 Quadrupole moment (field-independent basis, Debye-Ang):
   XX=            -50.8640   YY=            -36.4973   ZZ=            -84.1406
   XY=             10.3366   XZ=             -0.0000   YZ=             -0.0000

 Normal termination of Gaussian 16 at Wed Jul 27 11:06:02 2022.
