 Gaussian 16, Revision C.01,
 Gaussian 16:  ES64L-G16RevC.01  3-Jul-2019

 ---------------------------------------------------------------
 #n M062X/6-311++G(d,p) TD(NStates=1) EmpiricalDispersion=GD3 SP
 ---------------------------------------------------------------

 ------
 SP_125
 ------
 Symbolic Z-matrix:
 Charge =  1 Multiplicity = 1

                         Standard orientation:
 ---------------------------------------------------------------------
 Center     Atomic      Atomic             Coordinates (Angstroms)
 Number     Number       Type             X           Y           Z
 ---------------------------------------------------------------------
      1          6           0        0.020245    2.850690    0.000000
      2          6           0       -1.150621    3.596793    0.000000
      3          6           0       -2.358216    2.922308    0.000000
      4          6           0       -2.389605    1.504086    0.000000
      5          6           0       -0.083955   -2.849881    0.000000
      6          6           0        1.092400   -3.589913    0.000000
      7          6           0        2.324212   -2.943796    0.000000
      8          6           0        2.369454   -1.554055    0.000000
      9          6           0        1.286425    0.692830    0.000000
     10          6           0       -1.252736   -0.688883    0.000000
     11          6           0        0.000000    1.427133    0.000000
     12          6           0       -1.221786    0.741429    0.000000
     13          6           0        1.197835   -0.795379    0.000000
     14          6           0       -0.059716   -1.442213    0.000000
     15          1           0        0.981391    3.350389    0.000000
     16          1           0       -1.116077    4.675681    0.000000
     17          1           0       -3.292479    3.465966    0.000000
     18          1           0       -3.349554    1.003467    0.000000
     19          1           0       -2.207254   -1.196126    0.000000
     20          1           0       -1.040185   -3.356677    0.000000
     21          1           0        1.045325   -4.669475    0.000000
     22          1           0        3.240794   -3.515295    0.000000
     23          1           0        3.326568   -1.047270    0.000000
     24          1           0        1.883929    1.031222    0.861525
     25          1           0        1.883929    1.031222   -0.861525
 ---------------------------------------------------------------------

 SCF Done:  E(RM062X) =  -539.759277974     A.U. after   15 cycles

 Excitation energies and oscillator strengths:

 Excited State   1:      Singlet-A'     2.7918 eV  444.10 nm  f=0.0257  <S**2>=0.000
      47 -> 48         0.70396
 This state for optimization and/or second-order correction.
 Total Energy, E(TD-HF/TD-DFT) =  -539.656681081
 Copying the excited state density for this state as the 1-particle RhoCI density.

 The electronic state is 1-A'.
 Alpha  occ. eigenvalues --  -10.77670 -10.73502 -10.73067 -10.72620 -10.72270
 Alpha  occ. eigenvalues --  -10.71575 -10.71388 -10.71164 -10.71005 -10.70616
 Alpha  occ. eigenvalues --  -10.70072 -10.69875 -10.69764 -10.69519  -1.16413
 Alpha  occ. eigenvalues --   -1.12438  -1.06945  -1.05675  -1.01309  -1.00170
 Alpha  occ. eigenvalues --   -0.95752  -0.91034  -0.86417  -0.85883  -0.83797
 Alpha  occ. eigenvalues --   -0.78381  -0.76004  -0.74405  -0.69619  -0.69248
 Alpha  occ. eigenvalues --   -0.68454  -0.68153  -0.68113  -0.64830  -0.64250
 Alpha  occ. eigenvalues --   -0.62938  -0.61816  -0.60158  -0.59559  -0.59112
 Alpha  occ. eigenvalues --   -0.56883  -0.55239  -0.54753  -0.52444  -0.46721
 Alpha  occ. eigenvalues --   -0.46080  -0.44387
 Alpha virt. eigenvalues --   -0.26108  -0.14665  -0.14095  -0.12776  -0.11178
 Alpha virt. eigenvalues --   -0.10082  -0.09235  -0.07979  -0.07972  -0.07476
 Alpha virt. eigenvalues --   -0.07198  -0.07140  -0.05646  -0.05578  -0.05332

 Mulliken charges:
               1
     1  C    0.099412
     2  C   -0.408349
     3  C   -0.442138
     4  C   -0.002421
     5  C    0.010683
     6  C   -0.437298
     7  C   -0.403860
     8  C    0.082632
     9  C   -0.353459
    10  C    0.081059
    11  C   -0.618386
    12  C    0.696758
    13  C   -0.639533
    14  C    0.716458
    15  H    0.236701
    16  H    0.254480
    17  H    0.247464
    18  H    0.220720
    19  H    0.190485
    20  H    0.223419
    21  H    0.250147
    22  H    0.257882
    23  H    0.238633
    24  H    0.249255
    25  H    0.249255
 Sum of Mulliken charges =   1.00000

 Dipole moment (field-independent basis, Debye):
    X=              0.0286    Y=             -0.4610    Z=              0.0000  Tot=              0.4619
 Quadrupole moment (field-independent basis, Debye-Ang):
   XX=            -50.8644   YY=            -36.4726   ZZ=            -84.1420
   XY=            -10.3544   XZ=              0.0000   YZ=              0.0000

 Normal termination of Gaussian 16 at Wed Jul 27 12:41:52 2022.
