 Gaussian 16, Revision C.01,
 Gaussian 16:  ES64L-G16RevC.01  3-Jul-2019

 ---------------------------------------------------------------
 #n M062X/6-311++G(d,p) TD(NStates=1) EmpiricalDispersion=GD3 SP
 ---------------------------------------------------------------

 -----
 SP_75
 -----
 Symbolic Z-matrix:
 Charge =  1 Multiplicity = 1

                         Standard orientation:
 ---------------------------------------------------------------------
 Center     Atomic      Atomic             Coordinates (Angstroms)
 Number     Number       Type             X           Y           Z
 ---------------------------------------------------------------------
      1          6           0        0.024867    2.856803    0.000000
      2          6           0       -1.141167    3.611640    0.000000
      3          6           0       -2.342041    2.935313    0.000000
      4          6           0       -2.373761    1.502747    0.000000
      5          6           0       -0.091365   -2.863124    0.000000
      6          6           0        1.074661   -3.592475    0.000000
      7          6           0        2.306197   -2.939737    0.000000
      8          6           0        2.360600   -1.547578    0.000000
      9          6           0        1.278387    0.691594    0.000000
     10          6           0       -1.245469   -0.701965    0.000000
     11          6           0        0.000000    1.421501    0.000000
     12          6           0       -1.216260    0.738437    0.000000
     13          6           0        1.202099   -0.798199    0.000000
     14          6           0       -0.060657   -1.450220    0.000000
     15          1           0        0.991034    3.347401    0.000000
     16          1           0       -1.104041    4.690131    0.000000
     17          1           0       -3.280666    3.472520    0.000000
     18          1           0       -3.338458    1.010550    0.000000
     19          1           0       -2.202090   -1.205613    0.000000
     20          1           0       -1.051373   -3.362569    0.000000
     21          1           0        1.036635   -4.672631    0.000000
     22          1           0        3.222575   -3.512328    0.000000
     23          1           0        3.322062   -1.049061    0.000000
     24          1           0        1.873881    1.046589    0.859600
     25          1           0        1.873881    1.046589   -0.859600
 ---------------------------------------------------------------------

 SCF Done:  E(RM062X) =  -539.756303883     A.U. after   15 cycles

 Excitation energies and oscillator strengths:

 Excited State   1:      Singlet-A'     2.7171 eV  456.30 nm  f=0.0219  <S**2>=0.000
      47 -> 48         0.70360
 This state for optimization and/or second-order correction.
 Total Energy, E(TD-HF/TD-DFT) =  -539.656450730
 Copying the excited state density for this state as the 1-particle RhoCI density.

 The electronic state is 1-A'.
 Alpha  occ. eigenvalues --  -10.77615 -10.73665 -10.72801 -10.72760 -10.72062
 Alpha  occ. eigenvalues --  -10.71798 -10.71762 -10.70983 -10.70942 -10.70258
 Alpha  occ. eigenvalues --  -10.70168 -10.69874 -10.69777 -10.69384  -1.16505
 Alpha  occ. eigenvalues --   -1.12471  -1.06940  -1.05807  -1.01297  -1.00331
 Alpha  occ. eigenvalues --   -0.95646  -0.91040  -0.86434  -0.85895  -0.83794
 Alpha  occ. eigenvalues --   -0.78358  -0.76099  -0.74386  -0.69704  -0.69293
 Alpha  occ. eigenvalues --   -0.68379  -0.68112  -0.68093  -0.65092  -0.64246
 Alpha  occ. eigenvalues --   -0.62848  -0.61697  -0.60328  -0.59370  -0.59136
 Alpha  occ. eigenvalues --   -0.56928  -0.55257  -0.54648  -0.52439  -0.47066
 Alpha  occ. eigenvalues --   -0.46109  -0.44032
 Alpha virt. eigenvalues --   -0.26098  -0.14668  -0.14084  -0.12766  -0.11186
 Alpha virt. eigenvalues --   -0.10091  -0.09248  -0.07969  -0.07943  -0.07481
 Alpha virt. eigenvalues --   -0.07209  -0.07140  -0.05645  -0.05577  -0.05345

 Mulliken charges:
               1
     1  C    0.111213
     2  C   -0.412031
     3  C   -0.443466
     4  C   -0.000600
     5  C    0.027654
     6  C   -0.434684
     7  C   -0.402422
     8  C    0.076286
     9  C   -0.338791
    10  C    0.087909
    11  C   -0.613757
    12  C    0.666402
    13  C   -0.652143
    14  C    0.708800
    15  H    0.235491
    16  H    0.252929
    17  H    0.246227
    18  H    0.219314
    19  H    0.189856
    20  H    0.224835
    21  H    0.251594
    22  H    0.259690
    23  H    0.239316
    24  H    0.250189
    25  H    0.250189
 Sum of Mulliken charges =   1.00000

 Dipole moment (field-independent basis, Debye):
    X=              0.2353    Y=             -0.8237    Z=              0.0000  Tot=              0.8567
 Quadrupole moment (field-independent basis, Debye-Ang):
   XX=            -51.0802   YY=            -36.2430   ZZ=            -84.1356
   XY=            -10.2068   XZ=             -0.0000   YZ=             -0.0000

 Normal termination of Gaussian 16 at Wed Jul 27 12:01:21 2022.
