 Gaussian 16, Revision C.01,
 Gaussian 16:  ES64L-G16RevC.01  3-Jul-2019

 ---------------------------------------------------------------
 #n M062X/6-311++G(d,p) TD(NStates=1) EmpiricalDispersion=GD3 SP
 ---------------------------------------------------------------

 ------
 SP_-25
 ------
 Symbolic Z-matrix:
 Charge =  1 Multiplicity = 1

                         Standard orientation:
 ---------------------------------------------------------------------
 Center     Atomic      Atomic             Coordinates (Angstroms)
 Number     Number       Type             X           Y           Z
 ---------------------------------------------------------------------
      1          6           0        0.025426    2.848999    0.000000
      2          6           0       -1.145651    3.599878    0.000000
      3          6           0       -2.349876    2.926358    0.000000
      4          6           0       -2.383803    1.503529    0.000000
      5          6           0       -0.085921   -2.853825    0.000000
      6          6           0        1.088280   -3.588061    0.000000
      7          6           0        2.317993   -2.939663    0.000000
      8          6           0        2.365613   -1.546560    0.000000
      9          6           0        1.273290    0.687078    0.000000
     10          6           0       -1.249797   -0.693063    0.000000
     11          6           0        0.000000    1.424830    0.000000
     12          6           0       -1.221186    0.740927    0.000000
     13          6           0        1.198994   -0.795971    0.000000
     14          6           0       -0.060153   -1.446211    0.000000
     15          1           0        0.988718    3.345074    0.000000
     16          1           0       -1.109110    4.678666    0.000000
     17          1           0       -3.285405    3.468833    0.000000
     18          1           0       -3.345931    1.006544    0.000000
     19          1           0       -2.205226   -1.199284    0.000000
     20          1           0       -1.043004   -3.359227    0.000000
     21          1           0        1.045243   -4.668211    0.000000
     22          1           0        3.235228   -3.510506    0.000000
     23          1           0        3.323895   -1.041710    0.000000
     24          1           0        1.878163    1.035175    0.857950
     25          1           0        1.878163    1.035175   -0.857950
 ---------------------------------------------------------------------

 SCF Done:  E(RM062X) =  -539.758349748     A.U. after   15 cycles

 Excitation energies and oscillator strengths:

 Excited State   1:      Singlet-A'     2.7710 eV  447.44 nm  f=0.0251  <S**2>=0.000
      47 -> 48         0.70381
 This state for optimization and/or second-order correction.
 Total Energy, E(TD-HF/TD-DFT) =  -539.656519043
 Copying the excited state density for this state as the 1-particle RhoCI density.

 The electronic state is 1-A'.
 Alpha  occ. eigenvalues --  -10.77631 -10.73485 -10.72910 -10.72644 -10.72178
 Alpha  occ. eigenvalues --  -10.71633 -10.71535 -10.71083 -10.70961 -10.70507
 Alpha  occ. eigenvalues --  -10.70100 -10.69841 -10.69784 -10.69455  -1.16508
 Alpha  occ. eigenvalues --   -1.12494  -1.06942  -1.05825  -1.01307  -1.00296
 Alpha  occ. eigenvalues --   -0.95714  -0.91065  -0.86431  -0.85912  -0.83819
 Alpha  occ. eigenvalues --   -0.78387  -0.76095  -0.74408  -0.69613  -0.69276
 Alpha  occ. eigenvalues --   -0.68458  -0.68170  -0.68087  -0.64929  -0.64276
 Alpha  occ. eigenvalues --   -0.63003  -0.61800  -0.60160  -0.59503  -0.59104
 Alpha  occ. eigenvalues --   -0.56931  -0.55236  -0.54768  -0.52434  -0.46856
 Alpha  occ. eigenvalues --   -0.46086  -0.44252
 Alpha virt. eigenvalues --   -0.26078  -0.14673  -0.14090  -0.12768  -0.11184
 Alpha virt. eigenvalues --   -0.10093  -0.09238  -0.07977  -0.07950  -0.07479
 Alpha virt. eigenvalues --   -0.07211  -0.07146  -0.05642  -0.05582  -0.05341

 Mulliken charges:
               1
     1  C    0.105909
     2  C   -0.410530
     3  C   -0.442245
     4  C    0.013575
     5  C    0.034008
     6  C   -0.437072
     7  C   -0.403756
     8  C    0.081330
     9  C   -0.320477
    10  C    0.099375
    11  C   -0.628517
    12  C    0.653080
    13  C   -0.649998
    14  C    0.684828
    15  H    0.235721
    16  H    0.254183
    17  H    0.247202
    18  H    0.220098
    19  H    0.189975
    20  H    0.223912
    21  H    0.250794
    22  H    0.258684
    23  H    0.238295
    24  H    0.250813
    25  H    0.250813
 Sum of Mulliken charges =   1.00000

 Dipole moment (field-independent basis, Debye):
    X=              0.1056    Y=             -0.5774    Z=              0.0000  Tot=              0.5870
 Quadrupole moment (field-independent basis, Debye-Ang):
   XX=            -50.9362   YY=            -36.4433   ZZ=            -84.1377
   XY=            -10.2716   XZ=              0.0000   YZ=              0.0000

 Normal termination of Gaussian 16 at Wed Jul 27 10:54:51 2022.
