 Gaussian 16, Revision C.01,
 Gaussian 16:  ES64L-G16RevC.01  3-Jul-2019

 ---------------------------------------------------------------
 #n M062X/6-311++G(d,p) TD(NStates=1) EmpiricalDispersion=GD3 SP
 ---------------------------------------------------------------

 ------
 SP_-50
 ------
 Symbolic Z-matrix:
 Charge =  1 Multiplicity = 1

                         Standard orientation:
 ---------------------------------------------------------------------
 Center     Atomic      Atomic             Coordinates (Angstroms)
 Number     Number       Type             X           Y           Z
 ---------------------------------------------------------------------
      1          6           0       -2.371454   -1.550549    0.000000
      2          6           0       -2.329974   -2.942185    0.000000
      3          6           0       -1.100183   -3.586163    0.000000
      4          6           0        0.080997   -2.844956    0.000000
      5          6           0        2.394331    1.504411    0.000000
      6          6           0        2.360437    2.917674    0.000000
      7          6           0        1.151787    3.589869    0.000000
      8          6           0       -0.022610    2.844699    0.000000
      9          6           0       -1.278032    0.687515    0.000000
     10          6           0        1.254642   -0.684332    0.000000
     11          6           0       -1.196125   -0.794085    0.000000
     12          6           0        0.059558   -1.440955    0.000000
     13          6           0        0.000000    1.428565    0.000000
     14          6           0        1.224952    0.742955    0.000000
     15          1           0       -3.326810   -1.040150    0.000000
     16          1           0       -3.247384   -3.512242    0.000000
     17          1           0       -1.051168   -4.665957    0.000000
     18          1           0        1.035527   -3.355311    0.000000
     19          1           0        2.208682   -1.192951    0.000000
     20          1           0        3.353323    1.001877    0.000000
     21          1           0        3.293057    3.464526    0.000000
     22          1           0        1.116890    4.668924    0.000000
     23          1           0       -0.982575    3.346790    0.000000
     24          1           0       -1.884750    1.024863    0.859050
     25          1           0       -1.884750    1.024863   -0.859050
 ---------------------------------------------------------------------

 SCF Done:  E(RM062X) =  -539.759743497     A.U. after   15 cycles

 Excitation energies and oscillator strengths:

 Excited State   1:      Singlet-A'     2.8084 eV  441.47 nm  f=0.0276  <S**2>=0.000
      47 -> 48         0.70410
 This state for optimization and/or second-order correction.
 Total Energy, E(TD-HF/TD-DFT) =  -539.656535278
 Copying the excited state density for this state as the 1-particle RhoCI density.

 The electronic state is 1-A'.
 Alpha  occ. eigenvalues --  -10.77657 -10.73371 -10.73082 -10.72545 -10.72312
 Alpha  occ. eigenvalues --  -10.71504 -10.71266 -10.71229 -10.70973 -10.70751
 Alpha  occ. eigenvalues --  -10.70037 -10.69906 -10.69709 -10.69544  -1.16462
 Alpha  occ. eigenvalues --   -1.12475  -1.06945  -1.05758  -1.01312  -1.00216
 Alpha  occ. eigenvalues --   -0.95764  -0.91059  -0.86422  -0.85905  -0.83819
 Alpha  occ. eigenvalues --   -0.78396  -0.76047  -0.74416  -0.69573  -0.69253
 Alpha  occ. eigenvalues --   -0.68493  -0.68189  -0.68096  -0.64791  -0.64282
 Alpha  occ. eigenvalues --   -0.63052  -0.61850  -0.60051  -0.59624  -0.59093
 Alpha  occ. eigenvalues --   -0.56908  -0.55220  -0.54822  -0.52437  -0.46687
 Alpha  occ. eigenvalues --   -0.46067  -0.44432
 Alpha virt. eigenvalues --   -0.26085  -0.14670  -0.14095  -0.12772  -0.11180
 Alpha virt. eigenvalues --   -0.10088  -0.09232  -0.07981  -0.07964  -0.07477
 Alpha virt. eigenvalues --   -0.07205  -0.07145  -0.05642  -0.05582  -0.05335

 Mulliken charges:
               1
     1  C    0.087079
     2  C   -0.405392
     3  C   -0.438536
     4  C    0.022500
     5  C    0.012738
     6  C   -0.441325
     7  C   -0.408628
     8  C    0.099140
     9  C   -0.329565
    10  C    0.095444
    11  C   -0.643973
    12  C    0.689100
    13  C   -0.632344
    14  C    0.673963
    15  H    0.237842
    16  H    0.257483
    17  H    0.249835
    18  H    0.222934
    19  H    0.190283
    20  H    0.221055
    21  H    0.248038
    22  H    0.255225
    23  H    0.236548
    24  H    0.250277
    25  H    0.250277
 Sum of Mulliken charges =   1.00000

 Dipole moment (field-independent basis, Debye):
    X=              0.0313    Y=             -0.3343    Z=             -0.0000  Tot=              0.3357
 Quadrupole moment (field-independent basis, Debye-Ang):
   XX=            -50.7908   YY=            -36.5907   ZZ=            -84.1408
   XY=             10.3729   XZ=              0.0000   YZ=             -0.0000

 Normal termination of Gaussian 16 at Wed Jul 27 10:46:12 2022.
