 Gaussian 16, Revision C.01,
 Gaussian 16:  ES64L-G16RevC.01  3-Jul-2019

 ---------------------------------------------------------------
 #n M062X/6-311++G(d,p) TD(NStates=1) EmpiricalDispersion=GD3 SP
 ---------------------------------------------------------------

 ----
 SP_0
 ----
 Symbolic Z-matrix:
 Charge =  1 Multiplicity = 1

                         Standard orientation:
 ---------------------------------------------------------------------
 Center     Atomic      Atomic             Coordinates (Angstroms)
 Number     Number       Type             X           Y           Z
 ---------------------------------------------------------------------
      1          6           0        0.022608    2.844696    0.000000
      2          6           0       -1.151789    3.589865    0.000000
      3          6           0       -2.360439    2.917669    0.000000
      4          6           0       -2.394331    1.504406    0.000000
      5          6           0       -0.080992   -2.844959    0.000000
      6          6           0        1.100188   -3.586165    0.000000
      7          6           0        2.329978   -2.942186    0.000000
      8          6           0        2.371457   -1.550550    0.000000
      9          6           0        1.278009    0.687558    0.000000
     10          6           0       -1.254640   -0.684336    0.000000
     11          6           0        0.000000    1.428562    0.000000
     12          6           0       -1.224951    0.742951    0.000000
     13          6           0        1.196127   -0.794087    0.000000
     14          6           0       -0.059555   -1.440958    0.000000
     15          1           0        0.982573    3.346788    0.000000
     16          1           0       -1.116893    4.668920    0.000000
     17          1           0       -3.293059    3.464520    0.000000
     18          1           0       -3.353322    1.001870    0.000000
     19          1           0       -2.208679   -1.192956    0.000000
     20          1           0       -1.035522   -3.355315    0.000000
     21          1           0        1.051175   -4.665959    0.000000
     22          1           0        3.247389   -3.512242    0.000000
     23          1           0        3.326813   -1.040149    0.000000
     24          1           0        1.884751    1.024862    0.859050
     25          1           0        1.884751    1.024862   -0.859050
 ---------------------------------------------------------------------

 SCF Done:  E(RM062X) =  -539.759743372     A.U. after   15 cycles

 Excitation energies and oscillator strengths:

 Excited State   1:      Singlet-A'     2.8084 eV  441.47 nm  f=0.0276  <S**2>=0.000
      47 -> 48         0.70410
 This state for optimization and/or second-order correction.
 Total Energy, E(TD-HF/TD-DFT) =  -539.656535303
 Copying the excited state density for this state as the 1-particle RhoCI density.

 The electronic state is 1-A'.
 Alpha  occ. eigenvalues --  -10.77657 -10.73371 -10.73082 -10.72545 -10.72312
 Alpha  occ. eigenvalues --  -10.71504 -10.71266 -10.71229 -10.70973 -10.70751
 Alpha  occ. eigenvalues --  -10.70037 -10.69906 -10.69709 -10.69544  -1.16462
 Alpha  occ. eigenvalues --   -1.12475  -1.06945  -1.05758  -1.01312  -1.00216
 Alpha  occ. eigenvalues --   -0.95764  -0.91059  -0.86422  -0.85905  -0.83819
 Alpha  occ. eigenvalues --   -0.78396  -0.76047  -0.74416  -0.69573  -0.69253
 Alpha  occ. eigenvalues --   -0.68493  -0.68189  -0.68096  -0.64791  -0.64282
 Alpha  occ. eigenvalues --   -0.63052  -0.61850  -0.60051  -0.59624  -0.59093
 Alpha  occ. eigenvalues --   -0.56908  -0.55221  -0.54822  -0.52437  -0.46687
 Alpha  occ. eigenvalues --   -0.46067  -0.44432
 Alpha virt. eigenvalues --   -0.26085  -0.14670  -0.14095  -0.12772  -0.11180
 Alpha virt. eigenvalues --   -0.10088  -0.09232  -0.07981  -0.07964  -0.07477
 Alpha virt. eigenvalues --   -0.07205  -0.07145  -0.05642  -0.05582  -0.05335

 Mulliken charges:
               1
     1  C    0.099117
     2  C   -0.408643
     3  C   -0.441326
     4  C    0.012727
     5  C    0.022511
     6  C   -0.438535
     7  C   -0.405377
     8  C    0.087101
     9  C   -0.329565
    10  C    0.095444
    11  C   -0.632370
    12  C    0.673977
    13  C   -0.643944
    14  C    0.689084
    15  H    0.236548
    16  H    0.255226
    17  H    0.248038
    18  H    0.221055
    19  H    0.190283
    20  H    0.222934
    21  H    0.249836
    22  H    0.257483
    23  H    0.237841
    24  H    0.250277
    25  H    0.250277
 Sum of Mulliken charges =   1.00000

 Dipole moment (field-independent basis, Debye):
    X=             -0.0313    Y=             -0.3343    Z=              0.0000  Tot=              0.3357
 Quadrupole moment (field-independent basis, Debye-Ang):
   XX=            -50.7908   YY=            -36.5907   ZZ=            -84.1408
   XY=            -10.3729   XZ=             -0.0000   YZ=              0.0000

 Normal termination of Gaussian 16 at Wed Jul 27 11:16:14 2022.
