 Gaussian 16, Revision C.01,
 Gaussian 16:  ES64L-G16RevC.01  3-Jul-2019

 ---------------------------------------------------------------
 #n M062X/6-311++G(d,p) TD(NStates=1) EmpiricalDispersion=GD3 SP
 ---------------------------------------------------------------

 -----
 SP_25
 -----
 Symbolic Z-matrix:
 Charge =  1 Multiplicity = 1

                         Standard orientation:
 ---------------------------------------------------------------------
 Center     Atomic      Atomic             Coordinates (Angstroms)
 Number     Number       Type             X           Y           Z
 ---------------------------------------------------------------------
      1          6           0        0.025140    2.852900    0.000000
      2          6           0       -1.143417    3.605758    0.000000
      3          6           0       -2.345964    2.930836    0.000000
      4          6           0       -2.378782    1.503139    0.000000
      5          6           0       -0.088636   -2.858476    0.000000
      6          6           0        1.081475   -3.590271    0.000000
      7          6           0        2.312097   -2.939702    0.000000
      8          6           0        2.363108   -1.547068    0.000000
      9          6           0        1.275835    0.689339    0.000000
     10          6           0       -1.247628   -0.697513    0.000000
     11          6           0        0.000000    1.423165    0.000000
     12          6           0       -1.218722    0.739683    0.000000
     13          6           0        1.200548   -0.797082    0.000000
     14          6           0       -0.060401   -1.448215    0.000000
     15          1           0        0.989871    3.346238    0.000000
     16          1           0       -1.106585    4.684398    0.000000
     17          1           0       -3.283040    3.470674    0.000000
     18          1           0       -3.342196    1.008546    0.000000
     19          1           0       -2.203653   -1.202449    0.000000
     20          1           0       -1.047183   -3.360901    0.000000
     21          1           0        1.040945   -4.670422    0.000000
     22          1           0        3.228905   -3.511418    0.000000
     23          1           0        3.322982   -1.045382    0.000000
     24          1           0        1.876015    1.040882    0.858775
     25          1           0        1.876015    1.040882   -0.858775
 ---------------------------------------------------------------------

 SCF Done:  E(RM062X) =  -539.757443350     A.U. after   15 cycles

 Excitation energies and oscillator strengths:

 Excited State   1:      Singlet-A'     2.7457 eV  451.55 nm  f=0.0235  <S**2>=0.000
      47 -> 48         0.70369
 This state for optimization and/or second-order correction.
 Total Energy, E(TD-HF/TD-DFT) =  -539.656539976
 Copying the excited state density for this state as the 1-particle RhoCI density.

 The electronic state is 1-A'.
 Alpha  occ. eigenvalues --  -10.77624 -10.73575 -10.72856 -10.72703 -10.72121
 Alpha  occ. eigenvalues --  -10.71698 -10.71666 -10.71013 -10.70971 -10.70381
 Alpha  occ. eigenvalues --  -10.70134 -10.69829 -10.69809 -10.69419  -1.16505
 Alpha  occ. eigenvalues --   -1.12483  -1.06941  -1.05814  -1.01302  -1.00310
 Alpha  occ. eigenvalues --   -0.95683  -0.91053  -0.86432  -0.85904  -0.83807
 Alpha  occ. eigenvalues --   -0.78374  -0.76095  -0.74398  -0.69656  -0.69283
 Alpha  occ. eigenvalues --   -0.68421  -0.68143  -0.68090  -0.65007  -0.64260
 Alpha  occ. eigenvalues --   -0.62926  -0.61754  -0.60244  -0.59437  -0.59119
 Alpha  occ. eigenvalues --   -0.56929  -0.55248  -0.54711  -0.52437  -0.46953
 Alpha  occ. eigenvalues --   -0.46098  -0.44150
 Alpha virt. eigenvalues --   -0.26088  -0.14670  -0.14087  -0.12767  -0.11185
 Alpha virt. eigenvalues --   -0.10092  -0.09242  -0.07973  -0.07947  -0.07480
 Alpha virt. eigenvalues --   -0.07210  -0.07143  -0.05643  -0.05580  -0.05342

 Mulliken charges:
               1
     1  C    0.108804
     2  C   -0.411382
     3  C   -0.442846
     4  C    0.006272
     5  C    0.030837
     6  C   -0.435940
     7  C   -0.403160
     8  C    0.078900
     9  C   -0.329545
    10  C    0.093931
    11  C   -0.621862
    12  C    0.659886
    13  C   -0.651287
    14  C    0.697343
    15  H    0.235607
    16  H    0.253554
    17  H    0.246713
    18  H    0.219692
    19  H    0.189928
    20  H    0.224376
    21  H    0.251194
    22  H    0.259186
    23  H    0.238809
    24  H    0.250495
    25  H    0.250495
 Sum of Mulliken charges =   1.00000

 Dipole moment (field-independent basis, Debye):
    X=              0.1703    Y=             -0.7008    Z=              0.0000  Tot=              0.7212
 Quadrupole moment (field-independent basis, Debye-Ang):
   XX=            -51.0084   YY=            -36.3444   ZZ=            -84.1369
   XY=            -10.2384   XZ=             -0.0000   YZ=             -0.0000

 Normal termination of Gaussian 16 at Wed Jul 27 11:28:20 2022.
