 Gaussian 16, Revision C.01,
 Gaussian 16:  ES64L-G16RevC.01  3-Jul-2019

 ---------------------------------------------------------------
 #n M062X/6-311++G(d,p) TD(NStates=1) EmpiricalDispersion=GD3 SP
 ---------------------------------------------------------------

 ------
 SP_-25
 ------
 Symbolic Z-matrix:
 Charge =  1 Multiplicity = 1

                         Standard orientation:
 ---------------------------------------------------------------------
 Center     Atomic      Atomic             Coordinates (Angstroms)
 Number     Number       Type             X           Y           Z
 ---------------------------------------------------------------------
      1          6           0       -2.360936   -1.549579    0.000000
      2          6           0       -2.306286   -2.940781    0.000000
      3          6           0       -1.074000   -3.593493    0.000000
      4          6           0        0.091540   -2.863307    0.000000
      5          6           0        2.373957    1.502779    0.000000
      6          6           0        2.343154    2.935412    0.000000
      7          6           0        1.141858    3.612332    0.000000
      8          6           0       -0.023497    2.858198    0.000000
      9          6           0       -1.282266    0.693674    0.000000
     10          6           0        1.245655   -0.702041    0.000000
     11          6           0       -1.202202   -0.798331    0.000000
     12          6           0        0.060600   -1.449727    0.000000
     13          6           0        0.000000    1.421655    0.000000
     14          6           0        1.215793    0.738242    0.000000
     15          1           0       -3.322503   -1.051367    0.000000
     16          1           0       -3.222395   -3.513751    0.000000
     17          1           0       -1.035596   -4.673501    0.000000
     18          1           0        1.051699   -3.362359    0.000000
     19          1           0        2.202196   -1.205626    0.000000
     20          1           0        3.338431    1.010268    0.000000
     21          1           0        3.281851    3.472253    0.000000
     22          1           0        1.105162    4.690813    0.000000
     23          1           0       -0.989488    3.349022    0.000000
     24          1           0       -1.874784    1.047023    0.860700
     25          1           0       -1.874784    1.047023   -0.860700
 ---------------------------------------------------------------------

 SCF Done:  E(RM062X) =  -539.756350909     A.U. after   15 cycles

 Excitation energies and oscillator strengths:

 Excited State   1:      Singlet-A'     2.7162 eV  456.45 nm  f=0.0216  <S**2>=0.000
      47 -> 48         0.70362
 This state for optimization and/or second-order correction.
 Total Energy, E(TD-HF/TD-DFT) =  -539.656530833
 Copying the excited state density for this state as the 1-particle RhoCI density.

 The electronic state is 1-A'.
 Alpha  occ. eigenvalues --  -10.77624 -10.73693 -10.72826 -10.72769 -10.72071
 Alpha  occ. eigenvalues --  -10.71794 -10.71764 -10.70997 -10.70946 -10.70253
 Alpha  occ. eigenvalues --  -10.70169 -10.69880 -10.69777 -10.69391  -1.16480
 Alpha  occ. eigenvalues --   -1.12454  -1.06941  -1.05765  -1.01296  -1.00302
 Alpha  occ. eigenvalues --   -0.95648  -0.91030  -0.86431  -0.85886  -0.83786
 Alpha  occ. eigenvalues --   -0.78354  -0.76076  -0.74382  -0.69713  -0.69288
 Alpha  occ. eigenvalues --   -0.68371  -0.68102  -0.68101  -0.65082  -0.64236
 Alpha  occ. eigenvalues --   -0.62821  -0.61687  -0.60344  -0.59372  -0.59141
 Alpha  occ. eigenvalues --   -0.56916  -0.55259  -0.54634  -0.52443  -0.47053
 Alpha  occ. eigenvalues --   -0.46111  -0.44041
 Alpha virt. eigenvalues --   -0.26108  -0.14666  -0.14085  -0.12769  -0.11185
 Alpha virt. eigenvalues --   -0.10088  -0.09248  -0.07968  -0.07948  -0.07480
 Alpha virt. eigenvalues --   -0.07205  -0.07137  -0.05646  -0.05576  -0.05343

 Mulliken charges:
               1
     1  C    0.075803
     2  C   -0.402108
     3  C   -0.434365
     4  C    0.021124
     5  C   -0.005810
     6  C   -0.443709
     7  C   -0.411458
     8  C    0.109575
     9  C   -0.349101
    10  C    0.081734
    11  C   -0.649602
    12  C    0.718480
    13  C   -0.608202
    14  C    0.678621
    15  H    0.239515
    16  H    0.259622
    17  H    0.251532
    18  H    0.224816
    19  H    0.189987
    20  H    0.219394
    21  H    0.246174
    22  H    0.252848
    23  H    0.235693
    24  H    0.249719
    25  H    0.249719
 Sum of Mulliken charges =   1.00000

 Dipole moment (field-independent basis, Debye):
    X=             -0.2322    Y=             -0.8257    Z=             -0.0000  Tot=              0.8577
 Quadrupole moment (field-independent basis, Debye-Ang):
   XX=            -51.0803   YY=            -36.2264   ZZ=            -84.1365
   XY=             10.2189   XZ=              0.0000   YZ=             -0.0000

 Normal termination of Gaussian 16 at Wed Jul 27 11:10:16 2022.
