 Gaussian 16, Revision C.01,
 Gaussian 16:  ES64L-G16RevC.01  3-Jul-2019

 ---------------------------------------------------------------
 #n M062X/6-311++G(d,p) TD(NStates=1) EmpiricalDispersion=GD3 SP
 ---------------------------------------------------------------

 -------
 SP_-100
 -------
 Symbolic Z-matrix:
 Charge =  1 Multiplicity = 1

                         Standard orientation:
 ---------------------------------------------------------------------
 Center     Atomic      Atomic             Coordinates (Angstroms)
 Number     Number       Type             X           Y           Z
 ---------------------------------------------------------------------
      1          6           0       -2.360432   -1.546577    0.000000
      2          6           0       -2.306152   -2.939215    0.000000
      3          6           0       -1.074991   -3.591965    0.000000
      4          6           0        0.091277   -2.863033    0.000000
      5          6           0        2.373663    1.502731    0.000000
      6          6           0        2.341484    2.935264    0.000000
      7          6           0        1.140821    3.611294    0.000000
      8          6           0       -0.025552    2.856105    0.000000
      9          6           0       -1.276448    0.690553    0.000000
     10          6           0        1.245376   -0.701928    0.000000
     11          6           0       -1.202047   -0.798134    0.000000
     12          6           0        0.060685   -1.450466    0.000000
     13          6           0        0.000000    1.421425    0.000000
     14          6           0        1.216493    0.738535    0.000000
     15          1           0       -3.321842   -1.047908    0.000000
     16          1           0       -3.222665   -3.511616    0.000000
     17          1           0       -1.037155   -4.672196    0.000000
     18          1           0        1.051210   -3.362674    0.000000
     19          1           0        2.202037   -1.205607    0.000000
     20          1           0        3.338472    1.010691    0.000000
     21          1           0        3.280074    3.472654    0.000000
     22          1           0        1.103481    4.689791    0.000000
     23          1           0       -0.991807    3.346591    0.000000
     24          1           0       -1.873429    1.046371    0.859050
     25          1           0       -1.873429    1.046371   -0.859050
 ---------------------------------------------------------------------

 SCF Done:  E(RM062X) =  -539.756267544     A.U. after   15 cycles

 Excitation energies and oscillator strengths:

 Excited State   1:      Singlet-A'     2.7176 eV  456.23 nm  f=0.0220  <S**2>=0.000
      47 -> 48         0.70359
 This state for optimization and/or second-order correction.
 Total Energy, E(TD-HF/TD-DFT) =  -539.656398862
 Copying the excited state density for this state as the 1-particle RhoCI density.

 The electronic state is 1-A'.
 Alpha  occ. eigenvalues --  -10.77611 -10.73651 -10.72789 -10.72755 -10.72057
 Alpha  occ. eigenvalues --  -10.71800 -10.71761 -10.70976 -10.70941 -10.70260
 Alpha  occ. eigenvalues --  -10.70167 -10.69870 -10.69777 -10.69380  -1.16517
 Alpha  occ. eigenvalues --   -1.12480  -1.06940  -1.05828  -1.01297  -1.00346
 Alpha  occ. eigenvalues --   -0.95645  -0.91045  -0.86435  -0.85900  -0.83798
 Alpha  occ. eigenvalues --   -0.78360  -0.76110  -0.74387  -0.69699  -0.69296
 Alpha  occ. eigenvalues --   -0.68383  -0.68117  -0.68090  -0.65097  -0.64251
 Alpha  occ. eigenvalues --   -0.62862  -0.61702  -0.60320  -0.59369  -0.59134
 Alpha  occ. eigenvalues --   -0.56934  -0.55256  -0.54655  -0.52438  -0.47072
 Alpha  occ. eigenvalues --   -0.46108  -0.44027
 Alpha virt. eigenvalues --   -0.26093  -0.14669  -0.14084  -0.12765  -0.11187
 Alpha virt. eigenvalues --   -0.10093  -0.09248  -0.07969  -0.07940  -0.07481
 Alpha virt. eigenvalues --   -0.07210  -0.07141  -0.05644  -0.05578  -0.05346

 Mulliken charges:
               1
     1  C    0.076318
     2  C   -0.402481
     3  C   -0.434857
     4  C    0.031071
     5  C    0.002157
     6  C   -0.443336
     7  C   -0.412228
     8  C    0.111847
     9  C   -0.333561
    10  C    0.090905
    11  C   -0.653054
    12  C    0.703641
    13  C   -0.616230
    14  C    0.659867
    15  H    0.239212
    16  H    0.259725
    17  H    0.251625
    18  H    0.224849
    19  H    0.189792
    20  H    0.219276
    21  H    0.246255
    22  H    0.252972
    23  H    0.235384
    24  H    0.250427
    25  H    0.250427
 Sum of Mulliken charges =   1.00000

 Dipole moment (field-independent basis, Debye):
    X=             -0.2368    Y=             -0.8227    Z=              0.0000  Tot=              0.8561
 Quadrupole moment (field-independent basis, Debye-Ang):
   XX=            -51.0802   YY=            -36.2513   ZZ=            -84.1352
   XY=             10.2007   XZ=              0.0000   YZ=             -0.0000

 Normal termination of Gaussian 16 at Wed Jul 27 10:16:03 2022.
