 Gaussian 16, Revision C.01,
 Gaussian 16:  ES64L-G16RevC.01  3-Jul-2019

 ---------------------------------------------------------------
 #n M062X/6-311++G(d,p) TD(NStates=1) EmpiricalDispersion=GD3 SP
 ---------------------------------------------------------------

 ------
 SP_100
 ------
 Symbolic Z-matrix:
 Charge =  1 Multiplicity = 1

                         Standard orientation:
 ---------------------------------------------------------------------
 Center     Atomic      Atomic             Coordinates (Angstroms)
 Number     Number       Type             X           Y           Z
 ---------------------------------------------------------------------
      1          6           0        1.359218    2.496506    0.000000
      2          6           0        0.671318    3.703406    0.000000
      3          6           0       -0.715782    3.685106    0.000000
      4          6           0       -1.407982    2.463406    0.000000
      5          6           0       -1.407982   -2.463394    0.000000
      6          6           0       -0.715782   -3.685094    0.000000
      7          6           0        0.671318   -3.703394    0.000000
      8          6           0        1.359218   -2.496494    0.000000
      9          6           0        1.462218   -0.000094    0.000000
     10          6           0       -1.429582    0.000006    0.000000
     11          6           0        0.677118    1.262406    0.000000
     12          6           0       -0.730182    1.236706    0.000000
     13          6           0        0.677118   -1.262394    0.000000
     14          6           0       -0.730182   -1.236694    0.000000
     15          1           0        2.442318    2.492506    0.000000
     16          1           0        1.210218    4.639106    0.000000
     17          1           0       -1.274882    4.609906    0.000000
     18          1           0       -2.490382    2.466906    0.000000
     19          1           0       -2.510482    0.000006    0.000000
     20          1           0       -2.490382   -2.466894    0.000000
     21          1           0       -1.274882   -4.609894    0.000000
     22          1           0        1.210218   -4.639094    0.000000
     23          1           0        2.442318   -2.492494    0.000000
     24          1           0        2.147818    0.000006    0.861800
     25          1           0        2.147818    0.000006   -0.861800
 ---------------------------------------------------------------------

 SCF Done:  E(RM062X) =  -539.760265883     A.U. after   15 cycles

 Excitation energies and oscillator strengths:

 Excited State   1:      Singlet-A'     2.8235 eV  439.12 nm  f=0.0283  <S**2>=0.000
      47 -> 48         0.70426
 This state for optimization and/or second-order correction.
 Total Energy, E(TD-HF/TD-DFT) =  -539.656505718
 Copying the excited state density for this state as the 1-particle RhoCI density.

 The electronic state is 1-A'.
 Alpha  occ. eigenvalues --  -10.77685 -10.73294 -10.73293 -10.72454 -10.72453
 Alpha  occ. eigenvalues --  -10.71374 -10.71374 -10.71009 -10.70995 -10.70995
 Alpha  occ. eigenvalues --  -10.69973 -10.69973 -10.69644 -10.69644  -1.16391
 Alpha  occ. eigenvalues --   -1.12432  -1.06946  -1.05644  -1.01313  -1.00124
 Alpha  occ. eigenvalues --   -0.95789  -0.91035  -0.86412  -0.85882  -0.83801
 Alpha  occ. eigenvalues --   -0.78390  -0.75979  -0.74413  -0.69584  -0.69233
 Alpha  occ. eigenvalues --   -0.68486  -0.68173  -0.68118  -0.64727  -0.64262
 Alpha  occ. eigenvalues --   -0.62987  -0.61862  -0.60061  -0.59656  -0.59102
 Alpha  occ. eigenvalues --   -0.56871  -0.55229  -0.54798  -0.52445  -0.46595
 Alpha  occ. eigenvalues --   -0.46056  -0.44530
 Alpha virt. eigenvalues --   -0.26108  -0.14664  -0.14099  -0.12778  -0.11176
 Alpha virt. eigenvalues --   -0.10080  -0.09230  -0.07983  -0.07980  -0.07474
 Alpha virt. eigenvalues --   -0.07196  -0.07141  -0.05646  -0.05578  -0.05328

 Mulliken charges:
               1
     1  C    0.090958
     2  C   -0.405696
     3  C   -0.440043
     4  C    0.002923
     5  C    0.002882
     6  C   -0.440045
     7  C   -0.405755
     8  C    0.090867
     9  C   -0.354972
    10  C    0.080813
    11  C   -0.628268
    12  C    0.708179
    13  C   -0.628362
    14  C    0.708237
    15  H    0.237680
    16  H    0.256163
    17  H    0.248786
    18  H    0.222058
    19  H    0.190655
    20  H    0.222058
    21  H    0.248785
    22  H    0.256164
    23  H    0.237683
    24  H    0.249125
    25  H    0.249125
 Sum of Mulliken charges =   1.00000

 Dipole moment (field-independent basis, Debye):
    X=             -0.1950    Y=              0.0000    Z=             -0.0000  Tot=              0.1950
 Quadrupole moment (field-independent basis, Debye-Ang):
   XX=            -56.2748   YY=            -31.0722   ZZ=            -84.1439
   XY=              0.0001   XZ=             -0.0000   YZ=             -0.0000

 Normal termination of Gaussian 16 at Wed Jul 27 12:28:21 2022.
