 Gaussian 16, Revision C.01,
 Gaussian 16:  ES64L-G16RevC.01  3-Jul-2019

 ---------------------------------------------------------------
 #n M062X/6-311++G(d,p) TD(NStates=1) EmpiricalDispersion=GD3 SP
 ---------------------------------------------------------------

 ------
 SP_100
 ------
 Symbolic Z-matrix:
 Charge =  1 Multiplicity = 1

                         Standard orientation:
 ---------------------------------------------------------------------
 Center     Atomic      Atomic             Coordinates (Angstroms)
 Number     Number       Type             X           Y           Z
 ---------------------------------------------------------------------
      1          6           0        0.019866    2.847488    0.000000
      2          6           0       -1.153167    3.591262    0.000000
      3          6           0       -2.362658    2.917881    0.000000
      4          6           0       -2.394722    1.504491    0.000000
      5          6           0       -0.081360   -2.845314    0.000000
      6          6           0        1.098852   -3.588201    0.000000
      7          6           0        2.330143   -2.944273    0.000000
      8          6           0        2.372129   -1.554550    0.000000
      9          6           0        1.285843    0.691574    0.000000
     10          6           0       -1.255020   -0.684470    0.000000
     11          6           0        0.000000    1.428880    0.000000
     12          6           0       -1.224018    0.742581    0.000000
     13          6           0        1.196326   -0.794343    0.000000
     14          6           0       -0.059458   -1.439961    0.000000
     15          1           0        0.979479    3.350026    0.000000
     16          1           0       -1.119124    4.670291    0.000000
     17          1           0       -3.295417    3.464003    0.000000
     18          1           0       -3.353267    1.001334    0.000000
     19          1           0       -2.208902   -1.192960    0.000000
     20          1           0       -1.036197   -3.354881    0.000000
     21          1           0        1.049074   -4.667700    0.000000
     22          1           0        3.247015   -3.515094    0.000000
     23          1           0        3.327699   -1.044762    0.000000
     24          1           0        1.886553    1.025739    0.861250
     25          1           0        1.886553    1.025739   -0.861250
 ---------------------------------------------------------------------

 SCF Done:  E(RM062X) =  -539.759816374     A.U. after   15 cycles

 Excitation energies and oscillator strengths:

 Excited State   1:      Singlet-A'     2.8088 eV  441.42 nm  f=0.0271  <S**2>=0.000
      47 -> 48         0.70410
 This state for optimization and/or second-order correction.
 Total Energy, E(TD-HF/TD-DFT) =  -539.656596335
 Copying the excited state density for this state as the 1-particle RhoCI density.

 The electronic state is 1-A'.
 Alpha  occ. eigenvalues --  -10.77675 -10.73424 -10.73134 -10.72563 -10.72329
 Alpha  occ. eigenvalues --  -10.71509 -10.71258 -10.71234 -10.71001 -10.70743
 Alpha  occ. eigenvalues --  -10.70039 -10.69907 -10.69722 -10.69559  -1.16411
 Alpha  occ. eigenvalues --   -1.12441  -1.06945  -1.05674  -1.01311  -1.00156
 Alpha  occ. eigenvalues --   -0.95771  -0.91039  -0.86416  -0.85886  -0.83803
 Alpha  occ. eigenvalues --   -0.78387  -0.76000  -0.74410  -0.69595  -0.69242
 Alpha  occ. eigenvalues --   -0.68475  -0.68168  -0.68112  -0.64777  -0.64260
 Alpha  occ. eigenvalues --   -0.62979  -0.61843  -0.60099  -0.59611  -0.59104
 Alpha  occ. eigenvalues --   -0.56882  -0.55232  -0.54785  -0.52443  -0.46657
 Alpha  occ. eigenvalues --   -0.46068  -0.44459
 Alpha virt. eigenvalues --   -0.26104  -0.14665  -0.14097  -0.12776  -0.11177
 Alpha virt. eigenvalues --   -0.10082  -0.09232  -0.07981  -0.07974  -0.07475
 Alpha virt. eigenvalues --   -0.07198  -0.07141  -0.05645  -0.05579  -0.05331

 Mulliken charges:
               1
     1  C    0.096969
     2  C   -0.407729
     3  C   -0.441448
     4  C    0.001218
     5  C    0.010042
     6  C   -0.438268
     7  C   -0.404725
     8  C    0.085602
     9  C   -0.350337
    10  C    0.083383
    11  C   -0.623929
    12  C    0.697443
    13  C   -0.637670
    14  C    0.710882
    15  H    0.236959
    16  H    0.255065
    17  H    0.247923
    18  H    0.221144
    19  H    0.190528
    20  H    0.222954
    21  H    0.249714
    22  H    0.257333
    23  H    0.238252
    24  H    0.249346
    25  H    0.249346
 Sum of Mulliken charges =   1.00000

 Dipole moment (field-independent basis, Debye):
    X=             -0.0374    Y=             -0.3378    Z=             -0.0000  Tot=              0.3398
 Quadrupole moment (field-independent basis, Debye-Ang):
   XX=            -50.7913   YY=            -36.5575   ZZ=            -84.1426
   XY=            -10.3968   XZ=              0.0000   YZ=              0.0000

 Normal termination of Gaussian 16 at Wed Jul 27 12:25:23 2022.
