 Gaussian 16, Revision C.01,
 Gaussian 16:  ES64L-G16RevC.01  3-Jul-2019

 ---------------------------------------------------------------
 #n M062X/6-311++G(d,p) TD(NStates=1) EmpiricalDispersion=GD3 SP
 ---------------------------------------------------------------

 ------
 SP_125
 ------
 Symbolic Z-matrix:
 Charge =  1 Multiplicity = 1

                         Standard orientation:
 ---------------------------------------------------------------------
 Center     Atomic      Atomic             Coordinates (Angstroms)
 Number     Number       Type             X           Y           Z
 ---------------------------------------------------------------------
      1          6           0        1.358918    2.497458    0.000000
      2          6           0        0.671143    3.703883    0.000000
      3          6           0       -0.716282    3.685408    0.000000
      4          6           0       -1.408082    2.463458    0.000000
      5          6           0       -1.408082   -2.463442    0.000000
      6          6           0       -0.716282   -3.685392    0.000000
      7          6           0        0.671143   -3.703867    0.000000
      8          6           0        1.358918   -2.497442    0.000000
      9          6           0        1.464418   -0.000117    0.000000
     10          6           0       -1.429682    0.000008    0.000000
     11          6           0        0.677143    1.262483    0.000000
     12          6           0       -0.730032    1.236508    0.000000
     13          6           0        0.677143   -1.262467    0.000000
     14          6           0       -0.730032   -1.236492    0.000000
     15          1           0        2.441993    2.493608    0.000000
     16          1           0        1.209843    4.639683    0.000000
     17          1           0       -1.275507    4.610058    0.000000
     18          1           0       -2.490457    2.466758    0.000000
     19          1           0       -2.510532    0.000008    0.000000
     20          1           0       -2.490457   -2.466742    0.000000
     21          1           0       -1.275507   -4.610042    0.000000
     22          1           0        1.209843   -4.639667    0.000000
     23          1           0        2.441993   -2.493592    0.000000
     24          1           0        2.148318    0.000008    0.862350
     25          1           0        2.148318    0.000008   -0.862350
 ---------------------------------------------------------------------

 SCF Done:  E(RM062X) =  -539.760253552     A.U. after   14 cycles

 Excitation energies and oscillator strengths:

 Excited State   1:      Singlet-A'     2.8236 eV  439.10 nm  f=0.0282  <S**2>=0.000
      47 -> 48         0.70426
 This state for optimization and/or second-order correction.
 Total Energy, E(TD-HF/TD-DFT) =  -539.656487944
 Copying the excited state density for this state as the 1-particle RhoCI density.

 The electronic state is 1-A'.
 Alpha  occ. eigenvalues --  -10.77689 -10.73307 -10.73306 -10.72459 -10.72457
 Alpha  occ. eigenvalues --  -10.71376 -10.71376 -10.71016 -10.70993 -10.70993
 Alpha  occ. eigenvalues --  -10.69974 -10.69974 -10.69647 -10.69647  -1.16379
 Alpha  occ. eigenvalues --   -1.12424  -1.06946  -1.05623  -1.01313  -1.00110
 Alpha  occ. eigenvalues --   -0.95791  -0.91030  -0.86410  -0.85877  -0.83798
 Alpha  occ. eigenvalues --   -0.78388  -0.75967  -0.74412  -0.69590  -0.69230
 Alpha  occ. eigenvalues --   -0.68482  -0.68167  -0.68122  -0.64724  -0.64257
 Alpha  occ. eigenvalues --   -0.62968  -0.61861  -0.60076  -0.59650  -0.59104
 Alpha  occ. eigenvalues --   -0.56865  -0.55232  -0.54788  -0.52446  -0.46588
 Alpha  occ. eigenvalues --   -0.46056  -0.44537
 Alpha virt. eigenvalues --   -0.26113  -0.14663  -0.14099  -0.12779  -0.11175
 Alpha virt. eigenvalues --   -0.10078  -0.09230  -0.07983  -0.07982  -0.07474
 Alpha virt. eigenvalues --   -0.07195  -0.07140  -0.05647  -0.05578  -0.05327

 Mulliken charges:
               1
     1  C    0.090101
     2  C   -0.405300
     3  C   -0.440036
     4  C    0.000272
     5  C    0.000220
     6  C   -0.440039
     7  C   -0.405374
     8  C    0.089988
     9  C   -0.359962
    10  C    0.077617
    11  C   -0.625695
    12  C    0.712979
    13  C   -0.625808
    14  C    0.713051
    15  H    0.237769
    16  H    0.256127
    17  H    0.248758
    18  H    0.222078
    19  H    0.190717
    20  H    0.222078
    21  H    0.248757
    22  H    0.256128
    23  H    0.237772
    24  H    0.248901
    25  H    0.248901
 Sum of Mulliken charges =   1.00000

 Dipole moment (field-independent basis, Debye):
    X=             -0.1967    Y=              0.0000    Z=              0.0000  Tot=              0.1967
 Quadrupole moment (field-independent basis, Debye-Ang):
   XX=            -56.2780   YY=            -31.0612   ZZ=            -84.1443
   XY=              0.0001   XZ=              0.0000   YZ=             -0.0000

 Normal termination of Gaussian 16 at Wed Jul 27 12:46:24 2022.
