 Gaussian 16, Revision A.03,
 Gaussian 16:  ES64L-G16RevA.03 25-Dec-2016

 ---------------------------------------------------
 #n B3LYP/6-311+G(d,p) td(nstates=8,root=1) Opt Freq
 ---------------------------------------------------

 ------------------------------------------
 cation excited state frequencies c2v fixed
 ------------------------------------------
 Symbolic Z-matrix:
 Charge =  1 Multiplicity = 1

 SCF Done:  E(RB3LYP) =  -540.003504432     A.U. after   14 cycles
 Total Energy, E(TD-HF/TD-DFT) =  -539.915220729
 Optimization completed.
    -- Stationary point found.
 Normal termination of Gaussian 16 at Tue Nov 21 18:30:44 2017.

 ----------------------------------------------------------------------
 #N Geom=AllCheck Guess=TCheck SCRF=Check GenChk RB3LYP TD(FC,Read)/6-3
 11+G(d,p) Freq
 ----------------------------------------------------------------------

 Structure from the checkpoint file:  "anthcat.chk"
 ------------------------------------------
 cation excited state frequencies c2v fixed
 ------------------------------------------
 Charge =  1 Multiplicity = 1

                         Standard orientation:
 ---------------------------------------------------------------------
 Center     Atomic      Atomic             Coordinates (Angstroms)
 Number     Number       Type             X           Y           Z
 ---------------------------------------------------------------------
      1          6           0        0.000000    3.706055   -0.717748
      2          6           0        0.000000    2.480186   -1.412163
      3          6           0        0.000000    1.246903   -0.732624
      4          6           0        0.000000    1.271155    0.679449
      5          6           0        0.000000    2.509187    1.365386
      6          6           0        0.000000    3.722322    0.673766
      7          6           0       -0.000000   -0.000000   -1.435070
      8          6           0        0.000000    0.000000    1.461537
      9          6           0       -0.000000   -1.271155    0.679449
     10          6           0       -0.000000   -1.246903   -0.732624
     11          6           0       -0.000000   -2.480186   -1.412163
     12          1           0       -0.000000   -2.486596   -2.496730
     13          6           0       -0.000000   -3.706055   -0.717748
     14          6           0       -0.000000   -3.722322    0.673766
     15          6           0       -0.000000   -2.509187    1.365386
     16          1           0       -0.000000   -0.000000   -2.517017
     17          1           0        0.000000    4.633653   -1.277116
     18          1           0        0.000000    2.486596   -2.496730
     19          1           0        0.000000    2.509533    2.450312
     20          1           0        0.000000    4.659568    1.215087
     21          1           0        0.863171   -0.000000    2.151180
     22          1           0       -0.000000   -4.633653   -1.277116
     23          1           0       -0.000000   -4.659568    1.215087
     24          1           0       -0.000000   -2.509533    2.450312
     25          1           0       -0.863171    0.000000    2.151180
 ---------------------------------------------------------------------

 SCF Done:  E(RB3LYP) =  -540.003504432     A.U. after    1 cycles

 Excitation energies and oscillator strengths:

 Excited State   1:      Singlet-A1     2.4023 eV  516.10 nm  f=0.0175  <S**2>=0.000
      47 -> 48         0.70530
 This state for optimization and/or second-order correction.
 Total Energy, E(TD-HF/TD-DFT) =  -539.915220713
 Copying the excited state density for this state as the 1-particle RhoCI density.

 Excited State   2:      Singlet-B2     2.7753 eV  446.74 nm  f=0.0011  <S**2>=0.000
      45 -> 48        -0.32715
      46 -> 48         0.62477

 Excited State   3:      Singlet-B2     3.3251 eV  372.87 nm  f=0.5030  <S**2>=0.000
      45 -> 48         0.62125
      46 -> 48         0.32818

 Excited State   4:      Singlet-A1     4.6104 eV  268.92 nm  f=0.0204  <S**2>=0.000
      44 -> 48         0.66485
      45 -> 50        -0.12853
      47 -> 49         0.16064

 Excited State   5:      Singlet-A2     4.6245 eV  268.11 nm  f=0.0000  <S**2>=0.000
      43 -> 48         0.70298

 Excited State   6:      Singlet-B1     4.7002 eV  263.78 nm  f=0.0003  <S**2>=0.000
      42 -> 48         0.70362

 Excited State   7:      Singlet-A2     5.1660 eV  240.00 nm  f=0.0000  <S**2>=0.000
      41 -> 48         0.70265

 Excited State   8:      Singlet-B2     5.2301 eV  237.06 nm  f=0.0590  <S**2>=0.000
      45 -> 49        -0.29374
      46 -> 49        -0.28446
      47 -> 50         0.56213

 The electronic state is 1-A1.
 Alpha  occ. eigenvalues --  -10.40268 -10.36451 -10.36450 -10.35976 -10.35975
 Alpha  occ. eigenvalues --  -10.34555 -10.34554 -10.34497 -10.34305 -10.34304
 Alpha  occ. eigenvalues --  -10.33421 -10.33421 -10.33101 -10.33101  -1.05505
 Alpha  occ. eigenvalues --   -1.01937  -0.96790  -0.95597  -0.91676  -0.90632
 Alpha  occ. eigenvalues --   -0.86599  -0.82366  -0.78017  -0.77617  -0.75751
 Alpha  occ. eigenvalues --   -0.70772  -0.68468  -0.67022  -0.62677  -0.62329
 Alpha  occ. eigenvalues --   -0.61629  -0.61559  -0.60970  -0.58294  -0.57824
 Alpha  occ. eigenvalues --   -0.56880  -0.55716  -0.53464  -0.53226  -0.52859
 Alpha  occ. eigenvalues --   -0.51248  -0.49781  -0.49530  -0.46809  -0.41638
 Alpha  occ. eigenvalues --   -0.41371  -0.39765
 Alpha virt. eigenvalues --   -0.28691  -0.18232  -0.17653  -0.16647  -0.11828
 Alpha virt. eigenvalues --   -0.11713  -0.10676  -0.09921  -0.08808  -0.07744
 Alpha virt. eigenvalues --   -0.07739  -0.07255  -0.06681  -0.05953  -0.05781

 Mulliken charges:
               1
     1  C   -0.252538
     2  C   -0.205796
     3  C   -0.089123
     4  C    0.301135
     5  C    0.019628
     6  C   -0.141423
     7  C    0.093803
     8  C   -0.368749
     9  C    0.301135
    10  C   -0.089123
    11  C   -0.205796
    12  H    0.159256
    13  C   -0.252538
    14  C   -0.141423
    15  C    0.019628
    16  H    0.187293
    17  H    0.171955
    18  H    0.159256
    19  H    0.158142
    20  H    0.177434
    21  H    0.245155
    22  H    0.171955
    23  H    0.177434
    24  H    0.158142
    25  H    0.245155
 Sum of Mulliken charges =   1.00000

 Dipole moment (field-independent basis, Debye):
    X=             -0.0000    Y=              0.0000    Z=             -0.1012  Tot=              0.1012
 Quadrupole moment (field-independent basis, Debye-Ang):
   XX=            -83.6475   YY=            -31.1642   ZZ=            -57.1056
   XY=              0.0000   XZ=             -0.0000   YZ=             -0.0000

  Exact polarizability:  76.091  -0.000 896.531  -0.000   0.000 158.120
 Approx polarizability: 122.740   0.000 490.271  -0.000  -0.000 296.156

 ******    1 imaginary frequencies (negative Signs) ******

                      1                      2                      3
                     B2                     B1                     A2
 Frequencies --  -1068.9223                57.5493               105.7959
 Red. masses --      6.7977                 3.8557                 3.6347
 Frc consts  --      4.5762                 0.0075                 0.0240
 IR Inten    --  59877.8876                 0.1768                 0.0000

                      4                      5                      6
                     B1                     A2                     A1
 Frequencies --    193.3102               222.4983               231.6013
 Red. masses --      2.0984                 4.6136                 4.3862
 Frc consts  --      0.0462                 0.1346                 0.1386
 IR Inten    --      8.3040                 0.0000                 0.0435

                      7                      8                      9
                     B1                     A1                     B1
 Frequencies --    278.3721               372.8550               384.7126
 Red. masses --      2.7645                 6.8195                 2.4520
 Frc consts  --      0.1262                 0.5586                 0.2138
 IR Inten    --      3.3387                 0.0329                13.3403

                     10                     11                     12
                     B2                     A2                     A2
 Frequencies --    385.8799               418.3201               473.9817
 Red. masses --      4.4739                 2.8903                 3.0134
 Frc consts  --      0.3925                 0.2980                 0.3989
 IR Inten    --     44.8192                 0.0000                 0.0000

                     13                     14                     15
                     B1                     B2                     B1
 Frequencies --    494.4185               565.0330               581.9083
 Red. masses --      2.3122                 6.5461                 2.2061
 Frc consts  --      0.3330                 1.2313                 0.4401
 IR Inten    --      8.3862               208.7570                 0.3586

                     16                     17                     18
                     A1                     A2                     A1
 Frequencies --    613.4443               658.9676               666.6440
 Red. masses --      6.4175                 2.9759                 5.9435
 Frc consts  --      1.4229                 0.7614                 1.5562
 IR Inten    --      0.9275                 0.0000                 0.8644

                     19                     20                     21
                     B1                     ?A                     ?A
 Frequencies --    708.2401               743.7062               746.0450
 Red. masses --      1.2825                 5.5135                 5.3936
 Frc consts  --      0.3790                 1.7967                 1.7687
 IR Inten    --      6.6709              3728.2868                 0.7528

                     22                     23                     24
                     A2                     B1                     B2
 Frequencies --    752.4996               763.0638               808.8951
 Red. masses --      1.2384                 1.4324                 3.1832
 Frc consts  --      0.4132                 0.4914                 1.2272
 IR Inten    --      0.0000               105.1798                76.4737

                     25                     26                     27
                     B1                     A2                     A1
 Frequencies --    869.0438               884.8142               890.2223
 Red. masses --      1.6523                 1.4701                 5.5482
 Frc consts  --      0.7352                 0.6781                 2.5906
 IR Inten    --     13.2929                 0.0000                 1.6604

                     28                     29                     30
                     B1                     B2                     A2
 Frequencies --    903.2178               918.6302               968.4930
 Red. masses --      2.2741                 5.5530                 1.4232
 Frc consts  --      1.0931                 2.7610                 0.7865
 IR Inten    --      0.0051               391.4104                 0.0000

                     31                     32                     33
                     B1                     A2                     B1
 Frequencies --    977.2135               995.4841               997.2064
 Red. masses --      1.4829                 1.4311                 1.4246
 Frc consts  --      0.8344                 0.8356                 0.8347
 IR Inten    --      2.9390                 0.0000                 1.0363

                     34                     35                     36
                     A1                     B2                     B2
 Frequencies --   1054.2889              1060.9845              1095.1340
 Red. masses --      2.5386                 2.2568                 2.1565
 Frc consts  --      1.6625                 1.4968                 1.5238
 IR Inten    --      1.4954               101.3269                 9.2633

                     37                     38                     39
                     A1                     A2                     B2
 Frequencies --   1134.9096              1165.0070              1188.7105
 Red. masses --      1.6732                 1.1196                 1.3401
 Frc consts  --      1.2697                 0.8953                 1.1157
 IR Inten    --      0.9332                 0.0000                18.6801

                     40                     41                     42
                     A1                     B2                     A1
 Frequencies --   1191.4338              1200.7566              1210.6238
 Red. masses --      1.1647                 1.3763                 4.3941
 Frc consts  --      0.9741                 1.1691                 3.7944
 IR Inten    --      3.7932                13.5214                 3.4855

                     43                     44                     45
                     ?A                     ?A                     B2
 Frequencies --   1251.3568              1251.6373              1281.4903
 Red. masses --      1.9936                 3.8278                 1.5256
 Frc consts  --      1.8393                 3.5331                 1.4761
 IR Inten    --    136.6027                 1.4306               565.6366

                     46                     47                     48
                     A1                     A1                     B2
 Frequencies --   1305.6688              1329.0537              1343.5215
 Red. masses --      1.9313                 3.1777                 3.6050
 Frc consts  --      1.9398                 3.3071                 3.8339
 IR Inten    --      0.2373                33.0930               297.4650

                     49                     50                     51
                     A1                     B2                     B2
 Frequencies --   1380.5980              1382.2018              1431.2325
 Red. masses --      1.1076                 1.9118                 1.8841
 Frc consts  --      1.2439                 2.1520                 2.2740
 IR Inten    --     19.4124               110.6146               272.3621

                     52                     53                     54
                     A1                     B2                     ?A
 Frequencies --   1460.1886              1491.7894              1515.6100
 Red. masses --      1.8974                 2.3882                 2.6110
 Frc consts  --      2.3836                 3.1314                 3.5338
 IR Inten    --     64.1963               173.5485               126.3924

                     55                     56                     57
                     ?A                     B2                     A1
 Frequencies --   1520.6337              1577.8945              1589.1099
 Red. masses --      2.5315                 4.3346                 4.9480
 Frc consts  --      3.4489                 6.3585                 7.3618
 IR Inten    --      1.2919                 0.0121                 1.3969

                     58                     59                     60
                     A1                     A1                     B1
 Frequencies --   1623.3986              2947.8828              2947.9685
 Red. masses --      6.3072                 1.0628                 1.0925
 Frc consts  --      9.7934                 5.4413                 5.5940
 IR Inten    --     18.4512                 1.9471                 0.6785

                     61                     62                     63
                     B2                     A1                     A1
 Frequencies --   3176.8518              3177.3020              3182.4142
 Red. masses --      1.0895                 1.0901                 1.0905
 Frc consts  --      6.4786                 6.4836                 6.5070
 IR Inten    --     36.7544                 1.2021                 0.0798

                     64                     65                     66
                     B2                     B2                     A1
 Frequencies --   3182.4404              3199.0291              3199.0746
 Red. masses --      1.0905                 1.0916                 1.0915
 Frc consts  --      6.5072                 6.5817                 6.5817
 IR Inten    --      3.2038                 1.4155                 0.1081

                     67                     68                     69
                     A1                     B2                     A1
 Frequencies --   3205.7260              3211.5860              3212.2107
 Red. masses --      1.0899                 1.0969                 1.0973
 Frc consts  --      6.5989                 6.6661                 6.6710
 IR Inten    --      0.4740                45.7723                 0.1139

 - Thermochemistry -
 -------------------
 Temperature   298.150 Kelvin.  Pressure   1.00000 Atm.
 Atom     1 has atomic number  6 and mass  12.00000

 Molecular mass:   179.08608 amu.
 Principal axes and moments of inertia in atomic units:
                           1         2         3
     Eigenvalues --   850.989484109.233704949.49721
           X            0.00000   0.00000   1.00000
           Y            1.00000   0.00000  -0.00000
           Z           -0.00000   1.00000  -0.00000
 This molecule is an asymmetric top.
 Rotational symmetry number  2.
 Warning -- assumption of classical behavior for rotation
           may cause significant error
 Rotational temperatures (Kelvin)      0.10178     0.02108     0.01750
 Rotational constants (GHZ):           2.12076     0.43919     0.36463
    1 imaginary frequencies ignored.
 Zero-point vibrational energy     522240.5 (Joules/Mol)
                                  124.81847 (Kcal/Mol)
 Warning -- explicit consideration of  15 degrees of freedom as
           vibrations may cause significant error
 Vibrational temperatures:     82.80   152.22   278.13   320.13   333.22
          (Kelvin)            400.52   536.46   553.52   555.20   601.87
                              681.95   711.36   812.96   837.24   882.61
                              948.11   959.15  1019.00  1070.03  1073.39
                             1082.68  1097.88  1163.82  1250.36  1273.05
                             1280.83  1299.53  1321.70  1393.45  1405.99
                             1432.28  1434.76  1516.89  1526.52  1575.65
                             1632.88  1676.19  1710.29  1714.21  1727.62
                             1741.82  1800.42  1800.83  1843.78  1878.57
                             1912.21  1933.03  1986.37  1988.68  2059.22
                             2100.89  2146.35  2180.62  2187.85  2270.24
                             2286.37  2335.71  4241.35  4241.47  4570.78
                             4571.43  4578.78  4578.82  4602.69  4602.75
                             4612.32  4620.76  4621.65

 Zero-point correction=                           0.198911 (Hartree/Particle)
 Thermal correction to Energy=                    0.209163
 Thermal correction to Enthalpy=                  0.210107
 Thermal correction to Gibbs Free Energy=         0.163707
 Sum of electronic and zero-point Energies=           -539.716310
 Sum of electronic and thermal Energies=              -539.706058
 Sum of electronic and thermal Enthalpies=            -539.705114
 Sum of electronic and thermal Free Energies=         -539.751514

                     E (Thermal)             CV                S
                      KCal/Mol        Cal/Mol-Kelvin    Cal/Mol-Kelvin
 Total                  131.252             42.998             97.658
 Electronic               0.000              0.000              0.000
 Translational            0.889              2.981             41.455
 Rotational               0.889              2.981             29.849
 Vibrational            129.474             37.036             26.354
 Vibration     1          0.596              1.974              4.540
 Vibration     2          0.605              1.945              3.345
 Vibration     3          0.635              1.849              2.196
 Vibration     4          0.648              1.807              1.939
 Vibration     5          0.653              1.793              1.866
 Vibration     6          0.679              1.714              1.544
 Vibration     7          0.744              1.528              1.068
 Vibration     8          0.754              1.503              1.021
 Vibration     9          0.755              1.500              1.016
 Vibration    10          0.781              1.430              0.898
 Vibration    11          0.831              1.308              0.726
 Vibration    12          0.850              1.262              0.672
 Vibration    13          0.921              1.107              0.514
 Vibration    14          0.939              1.070              0.482
 Vibration    15          0.973              1.003              0.427

 Optimization completed.
    -- Stationary point found.
 Normal termination of Gaussian 16 at Tue Nov 21 19:02:32 2017.
