 Gaussian 16, Revision B.01,
 Gaussian 16:  ES64L-G16RevB.01 20-Dec-2017

 ----------------------------------------------------------------------
 # irc=(maxcycles=100,maxpoints=40,CalcAll,Forward,StepSize=2,Report=Ca
 rtesians) td b3lyp/6-311+g(d,p) geom=check maxdisk=100gb
 ----------------------------------------------------------------------

 -------------------------
 excited state frequencies
 -------------------------
 Structure from the checkpoint file:  "opt.chk"
 Charge =  1 Multiplicity = 1

 SCF Done:  E(RB3LYP) =  -540.003504432     A.U. after   14 cycles
 Total Energy, E(TD-HF/TD-DFT) =  -539.915220729
 SCF Done:  E(RB3LYP) =  -540.003424249     A.U. after   10 cycles
 Total Energy, E(TD-HF/TD-DFT) =  -539.915278178
 SCF Done:  E(RB3LYP) =  -540.003200713     A.U. after   10 cycles
 Total Energy, E(TD-HF/TD-DFT) =  -539.915436138
 SCF Done:  E(RB3LYP) =  -540.002833899     A.U. after   10 cycles
 Total Energy, E(TD-HF/TD-DFT) =  -539.915660056
 SCF Done:  E(RB3LYP) =  -540.002350969     A.U. after   10 cycles
 Total Energy, E(TD-HF/TD-DFT) =  -539.915910817
 SCF Done:  E(RB3LYP) =  -540.001789608     A.U. after   10 cycles
 Total Energy, E(TD-HF/TD-DFT) =  -539.916157366
 SCF Done:  E(RB3LYP) =  -540.001200753     A.U. after   10 cycles
 Total Energy, E(TD-HF/TD-DFT) =  -539.916381662
 SCF Done:  E(RB3LYP) =  -540.000636991     A.U. after   10 cycles
 Total Energy, E(TD-HF/TD-DFT) =  -539.916577202
 SCF Done:  E(RB3LYP) =  -540.000130935     A.U. after   10 cycles
 Total Energy, E(TD-HF/TD-DFT) =  -539.916744009
 SCF Done:  E(RB3LYP) =  -539.999684273     A.U. after   10 cycles
 Total Energy, E(TD-HF/TD-DFT) =  -539.916883748
 SCF Done:  E(RB3LYP) =  -539.999278807     A.U. after   10 cycles
 Total Energy, E(TD-HF/TD-DFT) =  -539.916997522
 SCF Done:  E(RB3LYP) =  -539.998893781     A.U. after   10 cycles
 Total Energy, E(TD-HF/TD-DFT) =  -539.917085872
 SCF Done:  E(RB3LYP) =  -539.998516706     A.U. after   10 cycles
 Total Energy, E(TD-HF/TD-DFT) =  -539.917149268
 SCF Done:  E(RB3LYP) =  -539.998150679     A.U. after   10 cycles
 Total Energy, E(TD-HF/TD-DFT) =  -539.917188760
 SCF Done:  E(RB3LYP) =  -539.997843258     A.U. after   10 cycles

 Excitation energies and oscillator strengths:

 Excited state symmetry could not be determined.
 Excited State   1:      Singlet-?Sym    2.1942 eV  565.05 nm  f=0.0097  <S**2>=0.000
      47 -> 48        -0.70451
 This state for optimization and/or second-order correction.
 Total Energy, E(TD-HF/TD-DFT) =  -539.917206901
 Copying the excited state density for this state as the 1-particle RhoCI density.

 Excited state symmetry could not be determined.
 Excited State   2:      Singlet-?Sym    2.9589 eV  419.01 nm  f=0.0089  <S**2>=0.000
      45 -> 48         0.68111
      46 -> 48        -0.17585

 Excited state symmetry could not be determined.
 Excited State   3:      Singlet-?Sym    3.2941 eV  376.38 nm  f=0.4812  <S**2>=0.000
      45 -> 48        -0.17223
      46 -> 48        -0.67996

                          Input orientation:
 ---------------------------------------------------------------------
 Center     Atomic      Atomic             Coordinates (Angstroms)
 Number     Number       Type             X           Y           Z
 ---------------------------------------------------------------------
      1          6           0        0.000000    3.717380    0.691216
      2          6           0        0.000000    2.456935    1.385869
      3          6           0        0.000000    1.233897    0.713242
      4          6           0       -0.000000    1.267414   -0.674155
      5          6           0       -0.000000    2.538267   -1.371635
      6          6           0        0.000000    3.750912   -0.691246
      7          6           0       -0.000000   -0.050964    1.427248
      8          6           0       -0.000000    0.014437   -1.481799
      9          6           0        0.000000   -1.276108   -0.703076
     10          6           0       -0.000000   -1.259061    0.733202
     11          6           0       -0.000000   -2.508561    1.423492
     12          1           0       -0.000000   -2.504220    2.507368
     13          6           0        0.000000   -3.701473    0.731244
     14          6           0       -0.000000   -3.700179   -0.671493
     15          6           0       -0.000000   -2.489752   -1.373087
     16          1           0       -0.000000   -0.043871    2.509203
     17          1           0        0.000000    4.631455    1.272483
     18          1           0        0.000000    2.473257    2.470804
     19          1           0       -0.000000    2.524915   -2.456389
     20          1           0        0.000000    4.688708   -1.230523
     21          1           0       -0.866173    0.047317   -2.162831
     22          1           0       -0.000000   -4.640849    1.270377
     23          1           0       -0.000000   -4.636793   -1.215072
     24          1           0       -0.000000   -2.505604   -2.457932
     25          1           0        0.866173    0.047317   -2.162831
 ---------------------------------------------------------------------

 Alpha  occ. eigenvalues --  -10.40196 -10.37133 -10.36401 -10.35849 -10.35531
 Alpha  occ. eigenvalues --  -10.35339 -10.35192 -10.34532 -10.33941 -10.33789
 Alpha  occ. eigenvalues --  -10.33542 -10.33320 -10.33050 -10.32687  -1.05510
 Alpha  occ. eigenvalues --   -1.01862  -0.96818  -0.95623  -0.91581  -0.90737
 Alpha  occ. eigenvalues --   -0.86442  -0.82341  -0.78007  -0.77541  -0.75690
 Alpha  occ. eigenvalues --   -0.70703  -0.68485  -0.66987  -0.62953  -0.62413
 Alpha  occ. eigenvalues --   -0.61495  -0.61223  -0.60979  -0.58735  -0.57699
 Alpha  occ. eigenvalues --   -0.56578  -0.55467  -0.53810  -0.53342  -0.52543
 Alpha  occ. eigenvalues --   -0.51276  -0.49821  -0.49166  -0.46843  -0.42056
 Alpha  occ. eigenvalues --   -0.41548  -0.39159
 Alpha virt. eigenvalues --   -0.28750  -0.18215  -0.17633  -0.16643  -0.11745
 Alpha virt. eigenvalues --   -0.11721  -0.10681  -0.09962  -0.08776  -0.07761
 Alpha virt. eigenvalues --   -0.07732  -0.07254  -0.06701  -0.05974  -0.05773

 Mulliken charges:
               1
     1  C   -0.260433
     2  C   -0.193073
     3  C   -0.133906
     4  C    0.466657
     5  C   -0.056170
     6  C   -0.144521
     7  C    0.094866
     8  C   -0.410910
     9  C    0.211295
    10  C   -0.056586
    11  C   -0.212225
    12  H    0.162112
    13  C   -0.247883
    14  C   -0.143715
    15  C    0.073893
    16  H    0.187107
    17  H    0.170378
    18  H    0.156590
    19  H    0.156234
    20  H    0.173196
    21  H    0.245430
    22  H    0.173719
    23  H    0.181809
    24  H    0.160707
    25  H    0.245430
 Sum of Mulliken charges =   1.00000

 Dipole moment (field-independent basis, Debye):
    X=             -0.0000    Y=             -1.1178    Z=              0.0604  Tot=              1.1194
 Quadrupole moment (field-independent basis, Debye-Ang):
   XX=            -83.6462   YY=            -30.9708   ZZ=            -57.1177
   XY=              0.0000   XZ=             -0.0000   YZ=             -0.4024

  Exact polarizability:  75.773   0.000 324.101   0.000  11.260 157.036
 Approx polarizability: 122.763   0.000 487.846   0.000   1.565 295.790

 Normal termination of Gaussian 16 at Wed Jul  3 14:36:56 2019.
