============================== echo of input deck ==============================
echo

start molecule

title "Title"
charge 1

geometry units angstroms print xyz autosym
   C        3.68899       -0.71525       -0.00001
   C        2.46648       -1.40896       -0.00000
   C        1.23907       -0.73181        0.00001
   C        1.26444        0.67745        0.00001
   C        2.49637        1.36186        0.00000
   C        3.70715        0.67289       -0.00001
   C        0.00000       -1.43027        0.00001
   C        0.00000        1.45619        0.00002
   C       -1.26444        0.67745        0.00000
   C       -1.23907       -0.73181        0.00001
   C       -2.46648       -1.40896        0.00000
   H       -2.46979       -2.49439        0.00001
   C       -3.68899       -0.71525       -0.00001
   C       -3.70715        0.67289       -0.00002
   C       -2.49637        1.36186       -0.00001
   H        0.00000       -2.51406        0.00002
   H        4.61630       -1.27585       -0.00002
   H        2.46979       -2.49439       -0.00001
   H        2.49099        2.44785        0.00001
   H        4.64457        1.21394       -0.00001
   H       -0.00000        2.15068        0.86166
   H       -4.61630       -1.27585       -0.00001
   H       -4.64457        1.21394       -0.00003
   H       -2.49099        2.44785       -0.00002
   H        0.00000        2.15073       -0.86158
end

basis
  * library 6-31G*
end

dft
  xc b3lyp
  mult 1
end

tddft
  cis
  nroots 5
  notriplet
  target 1
  targetsym a1
  civecs
  grad
    root 1
  end
end

task tddft optimize

================================================================================

         Total DFT energy =     -539.882615890905
  Root   1 singlet a1             0.094618041 a.u.                2.5747 eV
     Dipole Oscillator Strength                    0.0323220625
  Root   2 singlet b1             0.107091965 a.u.                2.9141 eV
     Dipole Oscillator Strength                    0.0025959779
  Root   3 singlet b1             0.135206934 a.u.                3.6792 eV
     Dipole Oscillator Strength                    0.7669649585
  Root   4 singlet a2             0.171381574 a.u.                4.6635 eV
     Dipole Oscillator Strength                    0.0000000000
  Root   5 singlet a1             0.176998761 a.u.                4.8164 eV
     Dipole Oscillator Strength                    0.0225403311
                         Root   1
@ Step       Energy      Delta E   Gmax     Grms     Xrms     Xmax   Walltime
@ ---- ---------------- -------- -------- -------- -------- -------- --------
@    0    -539.78799785  0.0D+00  0.00933  0.00235  0.00000  0.00000   2553.8
         Total DFT energy =     -539.882543624073
  Root   1 singlet a1             0.093705907 a.u.                2.5499 eV
     Dipole Oscillator Strength                    0.0310745646
  Root   2 singlet b1             0.105786528 a.u.                2.8786 eV
     Dipole Oscillator Strength                    0.0037046652
  Root   3 singlet b1             0.133797269 a.u.                3.6408 eV
     Dipole Oscillator Strength                    0.7719327550
  Root   4 singlet a2             0.171221335 a.u.                4.6592 eV
     Dipole Oscillator Strength                    0.0000000010
  Root   5 singlet a1             0.175040048 a.u.                4.7631 eV
     Dipole Oscillator Strength                    0.0232194495
         Total DFT energy =     -539.882543643804
  Root   1 singlet a1             0.093703476 a.u.                2.5498 eV
     Dipole Oscillator Strength                    0.0310767741
  Root   2 singlet b1             0.105783830 a.u.                2.8785 eV
     Dipole Oscillator Strength                    0.0037148588
  Root   3 singlet b1             0.133796607 a.u.                3.6408 eV
     Dipole Oscillator Strength                    0.7719051054
  Root   4 singlet a2             0.171220103 a.u.                4.6591 eV
     Dipole Oscillator Strength                    0.0000000010
  Root   5 singlet a1             0.175039424 a.u.                4.7631 eV
     Dipole Oscillator Strength                    0.0231997633
                         Root   1
@    1    -539.78884017 -8.4D-04  0.00095  0.00023  0.02105  0.05108   5308.4
         Total DFT energy =     -539.882576639125
  Root   1 singlet a1             0.093737871 a.u.                2.5507 eV
     Dipole Oscillator Strength                    0.0309429339
  Root   2 singlet b1             0.105738871 a.u.                2.8773 eV
     Dipole Oscillator Strength                    0.0035134250
  Root   3 singlet b1             0.133806045 a.u.                3.6410 eV
     Dipole Oscillator Strength                    0.7716465172
  Root   4 singlet a2             0.170780531 a.u.                4.6472 eV
     Dipole Oscillator Strength                    0.0000000001
  Root   5 singlet a1             0.175083698 a.u.                4.7643 eV
     Dipole Oscillator Strength                    0.0233089107
         Total DFT energy =     -539.882561935814
  Root   1 singlet a1             0.093704658 a.u.                2.5498 eV
     Dipole Oscillator Strength                    0.0309998053
  Root   2 singlet b1             0.105748179 a.u.                2.8776 eV
     Dipole Oscillator Strength                    0.0036092897
  Root   3 singlet b1             0.133793304 a.u.                3.6407 eV
     Dipole Oscillator Strength                    0.7717490101
  Root   4 singlet a2             0.171003327 a.u.                4.6532 eV
     Dipole Oscillator Strength                    0.0000000001
  Root   5 singlet a1             0.175042069 a.u.                4.7631 eV
     Dipole Oscillator Strength                    0.0232580006
                         Root   1
@    2    -539.78885728 -1.7D-05  0.00067  0.00015  0.00084  0.00223   8283.3
         Total DFT energy =     -539.882530229377
  Root   1 singlet a1             0.093665447 a.u.                2.5488 eV
     Dipole Oscillator Strength                    0.0307451232
  Root   2 singlet b1             0.105612163 a.u.                2.8739 eV
     Dipole Oscillator Strength                    0.0035582795
  Root   3 singlet b1             0.133787579 a.u.                3.6405 eV
     Dipole Oscillator Strength                    0.7717684982
  Root   4 singlet a2             0.170525228 a.u.                4.6402 eV
     Dipole Oscillator Strength                    0.0000000000
  Root   5 singlet a1             0.175055608 a.u.                4.7635 eV
     Dipole Oscillator Strength                    0.0233883631
         Total DFT energy =     -539.882539956627
  Root   1 singlet a1             0.093698036 a.u.                2.5497 eV
     Dipole Oscillator Strength                    0.0308185382
  Root   2 singlet b1             0.105668775 a.u.                2.8754 eV
     Dipole Oscillator Strength                    0.0035798117
  Root   3 singlet b1             0.133804855 a.u.                3.6410 eV
     Dipole Oscillator Strength                    0.7717990593
  Root   4 singlet a2             0.170658350 a.u.                4.6439 eV
     Dipole Oscillator Strength                    0.0000000000
  Root   5 singlet a1             0.175070413 a.u.                4.7639 eV
     Dipole Oscillator Strength                    0.0233643086
                         Root   1
@    3    -539.78884192  1.5D-05  0.00016  0.00003  0.00099  0.00285  11105.8
         Total DFT energy =     -539.882538087971
  Root   1 singlet a1             0.093699090 a.u.                2.5497 eV
     Dipole Oscillator Strength                    0.0307658319
  Root   2 singlet b1             0.105651072 a.u.                2.8749 eV
     Dipole Oscillator Strength                    0.0035839371
  Root   3 singlet b1             0.133805188 a.u.                3.6410 eV
     Dipole Oscillator Strength                    0.7719280630
  Root   4 singlet a2             0.170591029 a.u.                4.6420 eV
     Dipole Oscillator Strength                    0.0000000000
  Root   5 singlet a1             0.175074085 a.u.                4.7640 eV
     Dipole Oscillator Strength                    0.0233697870
         Total DFT energy =     -539.882539486627

                       DFT Final Molecular Orbital Analysis
                       ------------------------------------

 Vector    1  Occ=2.000000D+00  E=-1.041499D+01  Symmetry=a1

 Vector  153  Occ=0.000000D+00  E= 1.342369D+00  Symmetry=b2

 Vector  154  Occ=0.000000D+00  E= 1.343511D+00  Symmetry=a2

 Vector  155  Occ=0.000000D+00  E= 1.364460D+00  Symmetry=b1

 Vector  156  Occ=0.000000D+00  E= 1.413333D+00  Symmetry=a1

 Vector  157  Occ=0.000000D+00  E= 1.526772D+00  Symmetry=a1

 Vector  158  Occ=0.000000D+00  E= 1.558727D+00  Symmetry=b1

 Vector  159  Occ=0.000000D+00  E= 1.590171D+00  Symmetry=b2

 Vector  160  Occ=0.000000D+00  E= 1.613358D+00  Symmetry=a1

 Vector  161  Occ=0.000000D+00  E= 1.646552D+00  Symmetry=b1

 Vector  162  Occ=0.000000D+00  E= 1.658927D+00  Symmetry=a1

 Vector  163  Occ=0.000000D+00  E= 1.664313D+00  Symmetry=a2

 Vector  164  Occ=0.000000D+00  E= 1.694812D+00  Symmetry=a1

 Vector  165  Occ=0.000000D+00  E= 1.709456D+00  Symmetry=b1

 Vector  166  Occ=0.000000D+00  E= 1.726819D+00  Symmetry=b2

 Vector  167  Occ=0.000000D+00  E= 1.734437D+00  Symmetry=a1

 Vector  168  Occ=0.000000D+00  E= 1.749824D+00  Symmetry=b1

 Vector  169  Occ=0.000000D+00  E= 1.757839D+00  Symmetry=a1

 Vector  170  Occ=0.000000D+00  E= 1.771660D+00  Symmetry=b1

 Vector  171  Occ=0.000000D+00  E= 1.773750D+00  Symmetry=b1

 Vector  172  Occ=0.000000D+00  E= 1.798060D+00  Symmetry=a1

 Vector  173  Occ=0.000000D+00  E= 1.837937D+00  Symmetry=a1

 Vector  174  Occ=0.000000D+00  E= 1.854964D+00  Symmetry=b1

 Vector  175  Occ=0.000000D+00  E= 1.875641D+00  Symmetry=a2

 Vector  176  Occ=0.000000D+00  E= 1.897120D+00  Symmetry=a1

 Vector  177  Occ=0.000000D+00  E= 1.925260D+00  Symmetry=b2

 Vector  178  Occ=0.000000D+00  E= 1.927329D+00  Symmetry=b1

 Vector  179  Occ=0.000000D+00  E= 1.955124D+00  Symmetry=a1

 Vector  180  Occ=0.000000D+00  E= 1.958966D+00  Symmetry=b1

 Vector  181  Occ=0.000000D+00  E= 1.995160D+00  Symmetry=a1

 Vector  182  Occ=0.000000D+00  E= 2.027361D+00  Symmetry=b1

 Vector  183  Occ=0.000000D+00  E= 2.028038D+00  Symmetry=b2

 Vector  184  Occ=0.000000D+00  E= 2.062317D+00  Symmetry=a2

 Vector  185  Occ=0.000000D+00  E= 2.068863D+00  Symmetry=b2

 Vector  186  Occ=0.000000D+00  E= 2.089950D+00  Symmetry=a2

 Vector  187  Occ=0.000000D+00  E= 2.093952D+00  Symmetry=a1

 Vector  188  Occ=0.000000D+00  E= 2.114389D+00  Symmetry=a2

 Vector  189  Occ=0.000000D+00  E= 2.132486D+00  Symmetry=a2

 Vector  190  Occ=0.000000D+00  E= 2.132570D+00  Symmetry=b2

 Vector  191  Occ=0.000000D+00  E= 2.150013D+00  Symmetry=a1

 Vector  192  Occ=0.000000D+00  E= 2.190674D+00  Symmetry=b1

 Vector  193  Occ=0.000000D+00  E= 2.191246D+00  Symmetry=b2

 Vector  194  Occ=0.000000D+00  E= 2.202917D+00  Symmetry=a1

 Vector  195  Occ=0.000000D+00  E= 2.255406D+00  Symmetry=b2

 Vector  196  Occ=0.000000D+00  E= 2.285514D+00  Symmetry=b1

 Vector  197  Occ=0.000000D+00  E= 2.372156D+00  Symmetry=a2

 Vector  198  Occ=0.000000D+00  E= 2.390224D+00  Symmetry=a1

 Vector  199  Occ=0.000000D+00  E= 2.466954D+00  Symmetry=b1

 Vector  200  Occ=0.000000D+00  E= 2.478305D+00  Symmetry=a1

 Vector  201  Occ=0.000000D+00  E= 2.485241D+00  Symmetry=a2

 Vector  202  Occ=0.000000D+00  E= 2.494637D+00  Symmetry=b2

 Vector  203  Occ=0.000000D+00  E= 2.498995D+00  Symmetry=b1

 Vector  204  Occ=0.000000D+00  E= 2.521338D+00  Symmetry=b1

 Vector  205  Occ=0.000000D+00  E= 2.554151D+00  Symmetry=a1

 Vector  206  Occ=0.000000D+00  E= 2.567300D+00  Symmetry=b1

 Vector  207  Occ=0.000000D+00  E= 2.583847D+00  Symmetry=a1

 Vector  208  Occ=0.000000D+00  E= 2.620770D+00  Symmetry=a1

 Vector  209  Occ=0.000000D+00  E= 2.666469D+00  Symmetry=b1

 Vector  210  Occ=0.000000D+00  E= 2.669564D+00  Symmetry=a1

 Vector  211  Occ=0.000000D+00  E= 2.691618D+00  Symmetry=b1

 Vector  212  Occ=0.000000D+00  E= 2.699606D+00  Symmetry=a1

 Vector  213  Occ=0.000000D+00  E= 2.774477D+00  Symmetry=b1

 Vector  214  Occ=0.000000D+00  E= 2.861121D+00  Symmetry=a1

 Vector  215  Occ=0.000000D+00  E= 2.906149D+00  Symmetry=b1

 Vector  216  Occ=0.000000D+00  E= 3.102533D+00  Symmetry=a1

 Vector  217  Occ=0.000000D+00  E= 3.252847D+00  Symmetry=a1

 Vector  218  Occ=0.000000D+00  E= 3.266640D+00  Symmetry=b1

 Vector  219  Occ=0.000000D+00  E= 3.893166D+00  Symmetry=a1

 Vector  220  Occ=0.000000D+00  E= 3.923506D+00  Symmetry=b1

 Vector  221  Occ=0.000000D+00  E= 3.935578D+00  Symmetry=a1

 Vector  222  Occ=0.000000D+00  E= 3.957718D+00  Symmetry=a1

 Vector  223  Occ=0.000000D+00  E= 3.958652D+00  Symmetry=b1

 Vector  224  Occ=0.000000D+00  E= 3.971465D+00  Symmetry=b1

 Vector  225  Occ=0.000000D+00  E= 4.018177D+00  Symmetry=a1

 Vector  226  Occ=0.000000D+00  E= 4.105660D+00  Symmetry=a1

 Vector  227  Occ=0.000000D+00  E= 4.173778D+00  Symmetry=b1

 Vector  228  Occ=0.000000D+00  E= 4.185672D+00  Symmetry=b1

 Vector  229  Occ=0.000000D+00  E= 4.268809D+00  Symmetry=a1

 Vector  230  Occ=0.000000D+00  E= 4.296702D+00  Symmetry=a1

 Vector  231  Occ=0.000000D+00  E= 4.494453D+00  Symmetry=b1

 Vector  232  Occ=0.000000D+00  E= 4.670586D+00  Symmetry=a1

  Root   1 singlet a1             0.093689677 a.u.                2.5494 eV
     Dipole Oscillator Strength                    0.0308157559
  Root   2 singlet b1             0.105655803 a.u.                2.8750 eV
     Dipole Oscillator Strength                    0.0035776799
  Root   3 singlet b1             0.133798040 a.u.                3.6408 eV
     Dipole Oscillator Strength                    0.7720531497
  Root   4 singlet a2             0.170639414 a.u.                4.6433 eV
     Dipole Oscillator Strength                    0.0000000000
  Root   5 singlet a1             0.175068378 a.u.                4.7639 eV
     Dipole Oscillator Strength                    0.0233637735

     Multipole analysis of the density
     ---------------------------------

     L   x y z        total
     -   - - -        -----
     0   0 0 0      1.000000

     1   1 0 0      0.000006
     1   0 1 0      0.000000
     1   0 0 1      0.216536

     2   2 0 0    -19.577787
     2   1 1 0      0.000000
     2   1 0 1      0.000007
     2   0 2 0    -60.776608
     2   0 1 1      0.000000

                         Root   1
@    4    -539.78884981 -7.9D-06  0.00017  0.00003  0.00004  0.00013  13519.8
@    4    -539.78884981 -7.9D-06  0.00017  0.00003  0.00004  0.00013  13519.8

 Output coordinates in angstroms (scale by  1.889725989 to convert to a.u.)

  No.       Tag          Charge          X              Y              Z
 ---- ---------------- ---------- -------------- -------------- --------------
    1 C                    6.0000    -3.71260301     0.00000000    -0.72126403
    2 C                    6.0000    -2.48444025     0.00000000    -1.41410300
    3 C                    6.0000    -1.25026770     0.00000000    -0.73188714
    4 C                    6.0000    -1.27403226     0.00000000     0.68112969
    5 C                    6.0000    -2.51355622     0.00000000     1.36784467
    6 C                    6.0000    -3.72835577     0.00000000     0.67378658
    7 C                    6.0000     0.00000000     0.00000000    -1.43535587
    8 C                    6.0000     0.00000000     0.00000000     1.46512580
    9 C                    6.0000     1.27403226     0.00000000     0.68112969
   10 C                    6.0000     1.25026770     0.00000000    -0.73188714
   11 C                    6.0000     2.48444025     0.00000000    -1.41410300
   12 H                    1.0000     2.48826173     0.00000000    -2.50086304
   13 C                    6.0000     3.71260301     0.00000000    -0.72126403
   14 C                    6.0000     3.72835577     0.00000000     0.67378658
   15 C                    6.0000     2.51355622     0.00000000     1.36784467
   16 H                    1.0000     0.00000000     0.00000000    -2.51953262
   17 H                    1.0000    -4.64104858     0.00000000    -1.28309978
   18 H                    1.0000    -2.48826173     0.00000000    -2.50086304
   19 H                    1.0000    -2.51343537     0.00000000     2.45478217
   20 H                    1.0000    -4.66729735     0.00000000     1.21673024
   21 H                    1.0000     0.00000000     0.86417338     2.15617289
   22 H                    1.0000     4.64104858     0.00000000    -1.28309978
   23 H                    1.0000     4.66729735     0.00000000     1.21673024
   24 H                    1.0000     2.51343537     0.00000000     2.45478217
   25 H                    1.0000     0.00000000    -0.86417338     2.15617289

 Total times  cpu:    13911.3s     wall:    13519.8s
