============================== echo of input deck ==============================
echo

start molecule

title "Title"
charge 1

geometry units angstroms print xyz
symmetry c2v
   C       -3.71260        0.00000       -0.72126
   C       -2.48444        0.00000       -1.41410
   C       -1.25027        0.00000       -0.73189
   C       -1.27403        0.00000        0.68113
   C       -2.51356        0.00000        1.36784
   C       -3.72836        0.00000        0.67379
   C        0.00000        0.00000       -1.43536
   C        0.00000        0.00000        1.46513
   C        1.27403        0.00000        0.68113
   C        1.25027        0.00000       -0.73189
   C        2.48444        0.00000       -1.41410
   H        2.48826        0.00000       -2.50086
   C        3.71260        0.00000       -0.72126
   C        3.72836        0.00000        0.67379
   C        2.51356        0.00000        1.36784
   H        0.00000        0.00000       -2.51953
   H       -4.64105        0.00000       -1.28310
   H       -2.48826        0.00000       -2.50086
   H       -2.51344        0.00000        2.45478
   H       -4.66730        0.00000        1.21673
   H        0.00000        0.86417        2.15617
   H        4.64105        0.00000       -1.28310
   H        4.66730        0.00000        1.21673
   H        2.51344        0.00000        2.45478
   H        0.00000       -0.86417        2.15617
end

basis
  * library 6-311+G*
end

dft
  xc b3lyp
  mult 1
end

tddft
  cis
  nroots 5
  notriplet
  target 1
  targetsym a1
  civecs
  grad
    root 1
  end
end

task tddft optimize

================================================================================

         Total DFT energy =     -539.992758555925
  Root   1 singlet a1             0.092870991 a.u.                2.5271 eV
     Dipole Oscillator Strength                    0.0284989159
  Root   2 singlet b1             0.105273301 a.u.                2.8646 eV
     Dipole Oscillator Strength                    0.0034619678
  Root   3 singlet b1             0.131822403 a.u.                3.5871 eV
     Dipole Oscillator Strength                    0.7608246401
  Root   4 singlet a2             0.170795829 a.u.                4.6476 eV
     Dipole Oscillator Strength                    0.0000000000
  Root   5 singlet a1             0.173575639 a.u.                4.7232 eV
     Dipole Oscillator Strength                    0.0207261941
                         Root   1
@ Step       Energy      Delta E   Gmax     Grms     Xrms     Xmax   Walltime
@ ---- ---------------- -------- -------- -------- -------- -------- --------
@    0    -539.89988757  0.0D+00  0.00242  0.00073  0.00000  0.00000  11120.1
         Total DFT energy =     -539.992990943089
  Root   1 singlet a1             0.093012909 a.u.                2.5310 eV
     Dipole Oscillator Strength                    0.0284092553
  Root   2 singlet b1             0.105516748 a.u.                2.8713 eV
     Dipole Oscillator Strength                    0.0036362307
  Root   3 singlet b1             0.132237018 a.u.                3.5984 eV
     Dipole Oscillator Strength                    0.7611637198
  Root   4 singlet a2             0.170887356 a.u.                4.6501 eV
     Dipole Oscillator Strength                    0.0000000015
  Root   5 singlet a1             0.174115298 a.u.                4.7379 eV
     Dipole Oscillator Strength                    0.0207476512
         Total DFT energy =     -539.993007366577
  Root   1 singlet a1             0.093017236 a.u.                2.5311 eV
     Dipole Oscillator Strength                    0.0284110497
  Root   2 singlet b1             0.105531865 a.u.                2.8717 eV
     Dipole Oscillator Strength                    0.0036538620
  Root   3 singlet b1             0.132275847 a.u.                3.5994 eV
     Dipole Oscillator Strength                    0.7614235335
  Root   4 singlet a2             0.170886558 a.u.                4.6501 eV
     Dipole Oscillator Strength                    0.0000000011
  Root   5 singlet a1             0.174166804 a.u.                4.7393 eV
     Dipole Oscillator Strength                    0.0207595041
                         Root   1
@    1    -539.89999013 -1.0D-04  0.00060  0.00014  0.00556  0.01251  22334.7
         Total DFT energy =     -539.992996948115
  Root   1 singlet a1             0.093023724 a.u.                2.5313 eV
     Dipole Oscillator Strength                    0.0283884253
  Root   2 singlet b1             0.105498693 a.u.                2.8708 eV
     Dipole Oscillator Strength                    0.0035808787
  Root   3 singlet b1             0.132181573 a.u.                3.5968 eV
     Dipole Oscillator Strength                    0.7605048710
  Root   4 singlet a2             0.170804956 a.u.                4.6478 eV
     Dipole Oscillator Strength                    0.0000000021
  Root   5 singlet a1             0.174189959 a.u.                4.7400 eV
     Dipole Oscillator Strength                    0.0208722531
         Total DFT energy =     -539.993006762015

                       DFT Final Molecular Orbital Analysis
                       ------------------------------------

 Vector    1  Occ=2.000000D+00  E=-1.040673D+01  Symmetry=a1

 Vector  265  Occ=0.000000D+00  E= 2.424807D+00  Symmetry=b2

 Vector  266  Occ=0.000000D+00  E= 2.427384D+00  Symmetry=a1

 Vector  267  Occ=0.000000D+00  E= 2.470586D+00  Symmetry=b2

 Vector  268  Occ=0.000000D+00  E= 2.488833D+00  Symmetry=a2

 Vector  269  Occ=0.000000D+00  E= 2.497901D+00  Symmetry=a1

 Vector  270  Occ=0.000000D+00  E= 2.538189D+00  Symmetry=b2

 Vector  271  Occ=0.000000D+00  E= 2.567835D+00  Symmetry=a1

 Vector  272  Occ=0.000000D+00  E= 2.614464D+00  Symmetry=a2

 Vector  273  Occ=0.000000D+00  E= 2.615906D+00  Symmetry=b1

 Vector  274  Occ=0.000000D+00  E= 2.639142D+00  Symmetry=b2

 Vector  275  Occ=0.000000D+00  E= 2.647983D+00  Symmetry=a2

 Vector  276  Occ=0.000000D+00  E= 2.676439D+00  Symmetry=b1

 Vector  277  Occ=0.000000D+00  E= 2.681064D+00  Symmetry=b2

 Vector  278  Occ=0.000000D+00  E= 2.709117D+00  Symmetry=b2

 Vector  279  Occ=0.000000D+00  E= 2.713680D+00  Symmetry=a1

 Vector  280  Occ=0.000000D+00  E= 2.738241D+00  Symmetry=a2

 Vector  281  Occ=0.000000D+00  E= 2.772983D+00  Symmetry=a2

 Vector  282  Occ=0.000000D+00  E= 2.845901D+00  Symmetry=b2

 Vector  283  Occ=0.000000D+00  E= 2.875928D+00  Symmetry=a1

 Vector  284  Occ=0.000000D+00  E= 2.904323D+00  Symmetry=b1

 Vector  285  Occ=0.000000D+00  E= 2.906388D+00  Symmetry=a1

 Vector  286  Occ=0.000000D+00  E= 2.908524D+00  Symmetry=b2

 Vector  287  Occ=0.000000D+00  E= 2.911969D+00  Symmetry=a2

 Vector  288  Occ=0.000000D+00  E= 2.944341D+00  Symmetry=a1

 Vector  289  Occ=0.000000D+00  E= 2.951773D+00  Symmetry=b1

 Vector  290  Occ=0.000000D+00  E= 2.960716D+00  Symmetry=b1

 Vector  291  Occ=0.000000D+00  E= 2.963828D+00  Symmetry=a1

 Vector  292  Occ=0.000000D+00  E= 2.970558D+00  Symmetry=b1

 Vector  293  Occ=0.000000D+00  E= 2.983864D+00  Symmetry=a1

 Vector  294  Occ=0.000000D+00  E= 3.005664D+00  Symmetry=b1

 Vector  295  Occ=0.000000D+00  E= 3.016351D+00  Symmetry=a1

 Vector  296  Occ=0.000000D+00  E= 3.026773D+00  Symmetry=b1

 Vector  297  Occ=0.000000D+00  E= 3.038146D+00  Symmetry=a1

 Vector  298  Occ=0.000000D+00  E= 3.046497D+00  Symmetry=b1

 Vector  299  Occ=0.000000D+00  E= 3.049888D+00  Symmetry=b2

 Vector  300  Occ=0.000000D+00  E= 3.053762D+00  Symmetry=a1

 Vector  301  Occ=0.000000D+00  E= 3.060754D+00  Symmetry=b1

 Vector  302  Occ=0.000000D+00  E= 3.061222D+00  Symmetry=a1

 Vector  303  Occ=0.000000D+00  E= 3.099169D+00  Symmetry=a1

 Vector  304  Occ=0.000000D+00  E= 3.141648D+00  Symmetry=a1

 Vector  305  Occ=0.000000D+00  E= 3.142652D+00  Symmetry=b1

 Vector  306  Occ=0.000000D+00  E= 3.148387D+00  Symmetry=b1

 Vector  307  Occ=0.000000D+00  E= 3.159306D+00  Symmetry=b1

 Vector  308  Occ=0.000000D+00  E= 3.163592D+00  Symmetry=a1

 Vector  309  Occ=0.000000D+00  E= 3.165971D+00  Symmetry=a1

 Vector  310  Occ=0.000000D+00  E= 3.185955D+00  Symmetry=b1

 Vector  311  Occ=0.000000D+00  E= 3.193955D+00  Symmetry=a1

 Vector  312  Occ=0.000000D+00  E= 3.308178D+00  Symmetry=a1

 Vector  313  Occ=0.000000D+00  E= 3.333146D+00  Symmetry=a1

 Vector  314  Occ=0.000000D+00  E= 3.351581D+00  Symmetry=b1

 Vector  315  Occ=0.000000D+00  E= 3.753981D+00  Symmetry=b1

 Vector  316  Occ=0.000000D+00  E= 3.778073D+00  Symmetry=b1

 Vector  317  Occ=0.000000D+00  E= 3.802575D+00  Symmetry=a1

 Vector  318  Occ=0.000000D+00  E= 3.845637D+00  Symmetry=a1

 Vector  319  Occ=0.000000D+00  E= 3.865295D+00  Symmetry=a1

 Vector  320  Occ=0.000000D+00  E= 3.907363D+00  Symmetry=b1

 Vector  321  Occ=0.000000D+00  E= 3.978545D+00  Symmetry=b1

 Vector  322  Occ=0.000000D+00  E= 4.026919D+00  Symmetry=a1

 Vector  323  Occ=0.000000D+00  E= 4.060944D+00  Symmetry=a1

 Vector  324  Occ=0.000000D+00  E= 4.083075D+00  Symmetry=a1

 Vector  325  Occ=0.000000D+00  E= 4.190532D+00  Symmetry=b1

 Vector  326  Occ=0.000000D+00  E= 4.223087D+00  Symmetry=a1

 Vector  327  Occ=0.000000D+00  E= 4.278969D+00  Symmetry=b1

 Vector  328  Occ=0.000000D+00  E= 4.514753D+00  Symmetry=b1

 Vector  329  Occ=0.000000D+00  E= 4.618538D+00  Symmetry=b1

 Vector  330  Occ=0.000000D+00  E= 4.626364D+00  Symmetry=a1

 Vector  331  Occ=0.000000D+00  E= 2.635808D+01  Symmetry=a1

 Vector  332  Occ=0.000000D+00  E= 2.637091D+01  Symmetry=b1

 Vector  333  Occ=0.000000D+00  E= 2.638152D+01  Symmetry=a1

 Vector  334  Occ=0.000000D+00  E= 2.638546D+01  Symmetry=a1

 Vector  335  Occ=0.000000D+00  E= 2.638912D+01  Symmetry=b1

 Vector  336  Occ=0.000000D+00  E= 2.643592D+01  Symmetry=b1

 Vector  337  Occ=0.000000D+00  E= 2.644108D+01  Symmetry=a1

 Vector  338  Occ=0.000000D+00  E= 2.644619D+01  Symmetry=b1

 Vector  339  Occ=0.000000D+00  E= 2.645355D+01  Symmetry=b1

 Vector  340  Occ=0.000000D+00  E= 2.648389D+01  Symmetry=a1

 Vector  341  Occ=0.000000D+00  E= 2.650625D+01  Symmetry=a1

 Vector  342  Occ=0.000000D+00  E= 2.655098D+01  Symmetry=a1

 Vector  343  Occ=0.000000D+00  E= 2.668818D+01  Symmetry=b1

 Vector  344  Occ=0.000000D+00  E= 2.681689D+01  Symmetry=a1

  Root   1 singlet a1             0.093033749 a.u.                2.5316 eV
     Dipole Oscillator Strength                    0.0284059937
  Root   2 singlet b1             0.105541467 a.u.                2.8719 eV
     Dipole Oscillator Strength                    0.0036499626
  Root   3 singlet b1             0.132268562 a.u.                3.5992 eV
     Dipole Oscillator Strength                    0.7609875420
  Root   4 singlet a2             0.170884296 a.u.                4.6500 eV
     Dipole Oscillator Strength                    0.0000000010
  Root   5 singlet a1             0.174185668 a.u.                4.7398 eV
     Dipole Oscillator Strength                    0.0207751353

     Multipole analysis of the density
     ---------------------------------

     L   x y z        total
     -   - - -        -----
     0   0 0 0      1.000000

     1   1 0 0      0.000000
     1   0 1 0     -0.000001
     1   0 0 1      0.223688

     2   2 0 0    -20.226329
     2   1 1 0     -0.000000
     2   1 0 1      0.000000
     2   0 2 0    -62.436883
     2   0 1 1     -0.000003

                         Root   1
@    2    -539.89997301  1.7D-05  0.00040  0.00010  0.00035  0.00117  34706.9
@    2    -539.89997301  1.7D-05  0.00040  0.00010  0.00035  0.00117  34706.9

 Output coordinates in angstroms (scale by  1.889725989 to convert to a.u.)

  No.       Tag          Charge          X              Y              Z
 ---- ---------------- ---------- -------------- -------------- --------------
    1 C                    6.0000    -3.70704362     0.00000000    -0.71938894
    2 C                    6.0000    -2.48101064     0.00000000    -1.41114972
    3 C                    6.0000    -1.24852416     0.00000000    -0.73092045
    4 C                    6.0000    -1.27203311     0.00000000     0.67916671
    5 C                    6.0000    -2.50965462     0.00000000     1.36526588
    6 C                    6.0000    -3.72280906     0.00000000     0.67291921
    7 C                    6.0000     0.00000000     0.00000000    -1.43363822
    8 C                    6.0000     0.00000000     0.00000000     1.46174200
    9 C                    6.0000     1.27203311     0.00000000     0.67916671
   10 C                    6.0000     1.24852416     0.00000000    -0.73092045
   11 C                    6.0000     2.48101064     0.00000000    -1.41114972
   12 H                    1.0000     2.48694238     0.00000000    -2.49616728
   13 C                    6.0000     3.70704362     0.00000000    -0.71938894
   14 C                    6.0000     3.72280906     0.00000000     0.67291921
   15 C                    6.0000     2.50965462     0.00000000     1.36526588
   16 H                    1.0000     0.00000000     0.00000000    -2.51624200
   17 H                    1.0000    -4.63471148     0.00000000    -1.27970795
   18 H                    1.0000    -2.48694238     0.00000000    -2.49616728
   19 H                    1.0000    -2.51032401     0.00000000     2.45090392
   20 H                    1.0000    -4.66066083     0.00000000     1.21494141
   21 H                    1.0000     0.00000000     0.86279037     2.15089186
   22 H                    1.0000     4.63471148     0.00000000    -1.27970795
   23 H                    1.0000     4.66066083     0.00000000     1.21494141
   24 H                    1.0000     2.51032401     0.00000000     2.45090392
   25 H                    1.0000     0.00000000    -0.86279037     2.15089186

 Total times  cpu:    34897.1s     wall:    34706.9s
