 Gaussian 16, Revision C.01,
 Gaussian 16:  ES64L-G16RevC.01  3-Jul-2019

 ---------------------------------------------------------------
 #n M062X/6-311++G(d,p) TD(NStates=1) EmpiricalDispersion=GD3 SP
 ---------------------------------------------------------------

 -----
 SP_14
 -----
 Symbolic Z-matrix:
 Charge =  1 Multiplicity = 1

                         Standard orientation:
 ---------------------------------------------------------------------
 Center     Atomic      Atomic             Coordinates (Angstroms)
 Number     Number       Type             X           Y           Z
 ---------------------------------------------------------------------
      1          6           0       -0.011422   -2.581233    0.000000
      2          6           0        1.237631   -3.254453    0.000000
      3          6           0        2.607107   -2.636597    0.000000
      4          6           0        2.756240   -1.622951    0.000000
      5          6           0        0.007339    2.475794    0.000000
      6          6           0       -1.467290    3.515038    0.000000
      7          6           0       -2.668347    3.036957    0.000000
      8          6           0       -2.610802    1.673679    0.000000
      9          6           0       -1.300151   -0.656057    0.000000
     10          6           0        1.427796    0.390810    0.000000
     11          6           0        0.048041   -1.557726    0.000000
     12          6           0        1.408014   -0.777390    0.000000
     13          6           0       -1.108885    0.689996    0.000000
     14          6           0        0.000000    1.265950    0.000000
     15          1           0       -0.898329   -3.210105    0.000000
     16          1           0        1.177944   -4.341455    0.000000
     17          1           0        3.425970   -3.386698    0.000000
     18          1           0        3.642451   -0.994268    0.000000
     19          1           0        2.281179    1.072572    0.000000
     20          1           0        0.889103    3.112056    0.000000
     21          1           0       -1.185109    4.595986    0.000000
     22          1           0       -3.567907    3.625879    0.000000
     23          1           0       -3.493068    1.036901    0.000000
     24          1           0       -2.111932   -0.640880    0.859585
     25          1           0       -2.111932   -0.640880   -0.859585
 ---------------------------------------------------------------------

 SCF Done:  E(RM062X) =  -538.925071799     A.U. after   18 cycles

 Excitation energies and oscillator strengths:

 Excited State   1:      Singlet-A'     0.9400 eV 1319.00 nm  f=0.0911  <S**2>=0.000
      47 -> 48         0.73429
      47 <- 48        -0.21985
 This state for optimization and/or second-order correction.
 Total Energy, E(TD-HF/TD-DFT) =  -538.890527887
 Copying the excited state density for this state as the 1-particle RhoCI density.

 The electronic state is 1-A'.
 Alpha  occ. eigenvalues --  -10.78740 -10.73386 -10.71778 -10.71121 -10.70923
 Alpha  occ. eigenvalues --  -10.70735 -10.70566 -10.70091 -10.69304 -10.69126
 Alpha  occ. eigenvalues --  -10.68756 -10.68072 -10.67026 -10.66802  -1.21398
 Alpha  occ. eigenvalues --   -1.14238  -1.13330  -1.07125  -1.04200  -1.02260
 Alpha  occ. eigenvalues --   -0.96173  -0.87736  -0.85940  -0.84152  -0.83042
 Alpha  occ. eigenvalues --   -0.77188  -0.76255  -0.74730  -0.74026  -0.70184
 Alpha  occ. eigenvalues --   -0.69345  -0.69291  -0.66951  -0.64495  -0.64298
 Alpha  occ. eigenvalues --   -0.62538  -0.62184  -0.59904  -0.58494  -0.56818
 Alpha  occ. eigenvalues --   -0.55936  -0.54757  -0.52887  -0.50899  -0.48994
 Alpha  occ. eigenvalues --   -0.46440  -0.35227
 Alpha virt. eigenvalues --   -0.27476  -0.16482  -0.11547  -0.10412  -0.10398
 Alpha virt. eigenvalues --   -0.09884  -0.08597  -0.07900  -0.07765  -0.07340
 Alpha virt. eigenvalues --   -0.07114  -0.06281  -0.05964  -0.05546  -0.05331

 Mulliken charges:
               1
     1  C   -0.018603
     2  C   -0.489445
     3  C   -0.375535
     4  C    0.027948
     5  C   -0.125551
     6  C   -0.334129
     7  C   -0.483516
     8  C    0.123905
     9  C   -0.367619
    10  C   -0.093486
    11  C   -0.761944
    12  C    0.493942
    13  C    0.131867
    14  C    0.655844
    15  H    0.239450
    16  H    0.277894
    17  H    0.257940
    18  H    0.234966
    19  H    0.146099
    20  H    0.203619
    21  H    0.246919
    22  H    0.238955
    23  H    0.230623
    24  H    0.269928
    25  H    0.269928
 Sum of Mulliken charges =   1.00000

 Dipole moment (field-independent basis, Debye):
    X=              1.5671    Y=             -4.7035    Z=              0.0000  Tot=              4.9577
 Quadrupole moment (field-independent basis, Debye-Ang):
   XX=            -46.0690   YY=            -36.1523   ZZ=            -82.7488
   XY=            -15.3004   XZ=             -0.0000   YZ=             -0.0000

 Normal termination of Gaussian 16 at Tue Aug  2 13:32:35 2022.
