 Gaussian 16, Revision C.01,
 Gaussian 16:  ES64L-G16RevC.01  3-Jul-2019

 ---------------------------------------------------------------
 #n M062X/6-311++G(d,p) TD(NStates=1) EmpiricalDispersion=GD3 SP
 ---------------------------------------------------------------

 ----
 SP_8
 ----
 Symbolic Z-matrix:
 Charge =  1 Multiplicity = 1

                         Standard orientation:
 ---------------------------------------------------------------------
 Center     Atomic      Atomic             Coordinates (Angstroms)
 Number     Number       Type             X           Y           Z
 ---------------------------------------------------------------------
      1          6           0       -0.010233   -2.662784    0.000000
      2          6           0        1.190941   -3.391755    0.000000
      3          6           0        2.502675   -2.774457    0.000000
      4          6           0        2.625877   -1.588424    0.000000
      5          6           0        0.032664    2.604879    0.000000
      6          6           0       -1.296322    3.541730    0.000000
      7          6           0       -2.520850    3.014102    0.000000
      8          6           0       -2.534849    1.636911    0.000000
      9          6           0       -1.288687   -0.673562    0.000000
     10          6           0        1.348131    0.518859    0.000000
     11          6           0        0.050949   -1.477392    0.000000
     12          6           0        1.361631   -0.756299    0.000000
     13          6           0       -1.181504    0.725391    0.000000
     14          6           0        0.000000    1.317229    0.000000
     15          1           0       -0.940405   -3.218562    0.000000
     16          1           0        1.117490   -4.474601    0.000000
     17          1           0        3.357909   -3.455693    0.000000
     18          1           0        3.555349   -1.032822    0.000000
     19          1           0        2.225085    1.164694    0.000000
     20          1           0        0.957821    3.168138    0.000000
     21          1           0       -1.092036    4.618148    0.000000
     22          1           0       -3.415206    3.615711    0.000000
     23          1           0       -3.460518    1.073146    0.000000
     24          1           0       -1.994015   -0.832366    0.859585
     25          1           0       -1.994015   -0.832366   -0.859585
 ---------------------------------------------------------------------

 SCF Done:  E(RM062X) =  -539.529498616     A.U. after   16 cycles

 Excitation energies and oscillator strengths:

 Excited State   1:      Singlet-A'     1.3923 eV  890.51 nm  f=0.0221  <S**2>=0.000
      47 -> 48         0.70365
 This state for optimization and/or second-order correction.
 Total Energy, E(TD-HF/TD-DFT) =  -539.478333197
 Copying the excited state density for this state as the 1-particle RhoCI density.

 The electronic state is 1-A'.
 Alpha  occ. eigenvalues --  -10.77193 -10.75084 -10.74705 -10.73314 -10.72761
 Alpha  occ. eigenvalues --  -10.70937 -10.70766 -10.70532 -10.70440 -10.69298
 Alpha  occ. eigenvalues --  -10.68956 -10.68261 -10.68164 -10.66909  -1.19137
 Alpha  occ. eigenvalues --   -1.12765  -1.09769  -1.06702  -1.02574  -1.01002
 Alpha  occ. eigenvalues --   -0.95296  -0.89312  -0.86555  -0.85132  -0.83304
 Alpha  occ. eigenvalues --   -0.77743  -0.76878  -0.74493  -0.72085  -0.69440
 Alpha  occ. eigenvalues --   -0.68896  -0.68377  -0.66756  -0.65419  -0.63731
 Alpha  occ. eigenvalues --   -0.62994  -0.62623  -0.60633  -0.57687  -0.57242
 Alpha  occ. eigenvalues --   -0.55579  -0.54818  -0.53466  -0.52362  -0.50367
 Alpha  occ. eigenvalues --   -0.46731  -0.38418
 Alpha virt. eigenvalues --   -0.26846  -0.14934  -0.12942  -0.11544  -0.11530
 Alpha virt. eigenvalues --   -0.10260  -0.09708  -0.07804  -0.07656  -0.07595
 Alpha virt. eigenvalues --   -0.07318  -0.06403  -0.05775  -0.05623  -0.05461

 Mulliken charges:
               1
     1  C    0.070947
     2  C   -0.373483
     3  C   -0.444041
     4  C    0.047797
     5  C    0.007228
     6  C   -0.448530
     7  C   -0.447733
     8  C    0.051217
     9  C   -0.422821
    10  C   -0.039928
    11  C   -0.656187
    12  C    0.585506
    13  C   -0.265256
    14  C    0.709724
    15  H    0.247064
    16  H    0.283305
    17  H    0.261934
    18  H    0.240811
    19  H    0.174455
    20  H    0.202136
    21  H    0.239553
    22  H    0.235006
    23  H    0.232893
    24  H    0.254201
    25  H    0.254201
 Sum of Mulliken charges =   1.00000

 Dipole moment (field-independent basis, Debye):
    X=              2.3296    Y=             -4.6444    Z=             -0.0000  Tot=              5.1959
 Quadrupole moment (field-independent basis, Debye-Ang):
   XX=            -48.0657   YY=            -36.5520   ZZ=            -83.7209
   XY=            -13.2462   XZ=              0.0000   YZ=             -0.0000

 Normal termination of Gaussian 16 at Tue Aug  2 13:08:36 2022.
