 Gaussian 16, Revision C.01,
 Gaussian 16:  ES64L-G16RevC.01  3-Jul-2019

 ---------------------------------------------------------------
 #n M062X/6-311++G(d,p) TD(NStates=1) EmpiricalDispersion=GD3 SP
 ---------------------------------------------------------------

 -----
 SP_12
 -----
 Symbolic Z-matrix:
 Charge =  1 Multiplicity = 1

                         Standard orientation:
 ---------------------------------------------------------------------
 Center     Atomic      Atomic             Coordinates (Angstroms)
 Number     Number       Type             X           Y           Z
 ---------------------------------------------------------------------
      1          6           0       -2.192420   -1.648682    0.000000
      2          6           0       -1.843957   -3.037026    0.000000
      3          6           0       -0.483413   -3.635398    0.000000
      4          6           0        0.350888   -3.016635    0.000000
      5          6           0        2.106086    1.587953    0.000000
      6          6           0        1.907928    3.346824    0.000000
      7          6           0        0.745848    3.902094    0.000000
      8          6           0       -0.222375    2.931709    0.000000
      9          6           0       -1.304016    0.650808    0.000000
     10          6           0        1.180334   -0.889127    0.000000
     11          6           0       -1.356019   -0.955255    0.000000
     12          6           0        0.112051   -1.486415    0.000000
     13          6           0        0.000000    1.217064    0.000000
     14          6           0        1.168103    0.755565    0.000000
     15          1           0       -3.264383   -1.408068    0.000000
     16          1           0       -2.675023   -3.737656    0.000000
     17          1           0       -0.466534   -4.720038    0.000000
     18          1           0        1.422279   -3.256810    0.000000
     19          1           0        2.161133   -1.346800    0.000000
     20          1           0        3.180806    1.355911    0.000000
     21          1           0        2.870276    3.875025    0.000000
     22          1           0        0.556753    4.959812    0.000000
     23          1           0       -1.297811    3.163838    0.000000
     24          1           0       -1.750862    1.386958    0.859585
     25          1           0       -1.750862    1.386958   -0.859585
 ---------------------------------------------------------------------

 SCF Done:  E(RM062X) =  -539.108189983     A.U. after   17 cycles

 Excitation energies and oscillator strengths:

 Excited State   1:      Singlet-A'     1.1133 eV 1113.70 nm  f=0.0979  <S**2>=0.000
      47 -> 48         0.71574
      47 <- 48        -0.15062
 This state for optimization and/or second-order correction.
 Total Energy, E(TD-HF/TD-DFT) =  -539.067278121
 Copying the excited state density for this state as the 1-particle RhoCI density.

 The electronic state is 1-A'.
 Alpha  occ. eigenvalues --  -10.78590 -10.74715 -10.73013 -10.72430 -10.71733
 Alpha  occ. eigenvalues --  -10.71215 -10.70518 -10.70070 -10.69834 -10.69168
 Alpha  occ. eigenvalues --  -10.68583 -10.68490 -10.68046 -10.66678  -1.20637
 Alpha  occ. eigenvalues --   -1.13450  -1.12754  -1.06834  -1.03315  -1.01317
 Alpha  occ. eigenvalues --   -0.95694  -0.88035  -0.85919  -0.85003  -0.83039
 Alpha  occ. eigenvalues --   -0.77219  -0.76501  -0.74408  -0.73454  -0.70058
 Alpha  occ. eigenvalues --   -0.69203  -0.68167  -0.66830  -0.64814  -0.63197
 Alpha  occ. eigenvalues --   -0.63114  -0.62777  -0.59038  -0.59009  -0.56685
 Alpha  occ. eigenvalues --   -0.54873  -0.54181  -0.52629  -0.51905  -0.48389
 Alpha  occ. eigenvalues --   -0.47484  -0.35985
 Alpha virt. eigenvalues --   -0.27148  -0.16528  -0.12066  -0.11490  -0.10389
 Alpha virt. eigenvalues --   -0.09924  -0.09015  -0.07892  -0.07695  -0.07387
 Alpha virt. eigenvalues --   -0.07356  -0.06059  -0.05925  -0.05471  -0.05136

 Mulliken charges:
               1
     1  C   -0.125503
     2  C   -0.416405
     3  C   -0.329035
     4  C   -0.183707
     5  C   -0.284921
     6  C   -0.320347
     7  C   -0.472798
     8  C    0.346781
     9  C   -0.567260
    10  C   -0.201351
    11  C   -0.707767
    12  C    0.574992
    13  C    0.471790
    14  C    0.571390
    15  H    0.242368
    16  H    0.278057
    17  H    0.260038
    18  H    0.225650
    19  H    0.160400
    20  H    0.222644
    21  H    0.237903
    22  H    0.239935
    23  H    0.228804
    24  H    0.274171
    25  H    0.274171
 Sum of Mulliken charges =   1.00000

 Dipole moment (field-independent basis, Debye):
    X=             -2.8381    Y=             -4.1337    Z=             -0.0000  Tot=              5.0142
 Quadrupole moment (field-independent basis, Debye-Ang):
   XX=            -54.3167   YY=            -28.1260   ZZ=            -83.3098
   XY=              9.4971   XZ=             -0.0000   YZ=             -0.0000

 Normal termination of Gaussian 16 at Tue Aug  2 13:29:07 2022.
