 Gaussian 16, Revision C.01,
 Gaussian 16:  ES64L-G16RevC.01  3-Jul-2019

 ---------------------------------------------------------------
 #n M062X/6-311++G(d,p) TD(NStates=1) EmpiricalDispersion=GD3 SP
 ---------------------------------------------------------------

 -----
 SP_-8
 -----
 Symbolic Z-matrix:
 Charge =  1 Multiplicity = 1

                         Standard orientation:
 ---------------------------------------------------------------------
 Center     Atomic      Atomic             Coordinates (Angstroms)
 Number     Number       Type             X           Y           Z
 ---------------------------------------------------------------------
      1          6           0        2.528871    1.706568    0.000000
      2          6           0        2.447937    3.084055    0.000000
      3          6           0        1.197764    3.561838    0.000000
      4          6           0       -0.086983    2.573952    0.000000
      5          6           0       -2.616364   -1.660015    0.000000
      6          6           0       -2.436116   -2.850034    0.000000
      7          6           0       -1.100257   -3.413605    0.000000
      8          6           0        0.063422   -2.628441    0.000000
      9          6           0        1.299903   -0.651145    0.000000
     10          6           0       -1.353807    0.498923    0.000000
     11          6           0        1.207551    0.742875    0.000000
     12          6           0        0.000000    1.292060    0.000000
     13          6           0       -0.048815   -1.447662    0.000000
     14          6           0       -1.381380   -0.775949    0.000000
     15          1           0        3.480258    1.188598    0.000000
     16          1           0        3.313874    3.729411    0.000000
     17          1           0        0.947634    4.631253    0.000000
     18          1           0       -1.037846    3.091427    0.000000
     19          1           0       -2.221596    1.168844    0.000000
     20          1           0       -3.571368   -1.150291    0.000000
     21          1           0       -3.265487   -3.569521    0.000000
     22          1           0       -0.974548   -4.493472    0.000000
     23          1           0        1.019129   -3.138324    0.000000
     24          1           0        1.989798   -0.829223    0.859585
     25          1           0        1.989798   -0.829223   -0.859585
 ---------------------------------------------------------------------

 SCF Done:  E(RM062X) =  -539.530367494     A.U. after   16 cycles

 Excitation energies and oscillator strengths:

 Excited State   1:      Singlet-A'     1.3964 eV  887.88 nm  f=0.0187  <S**2>=0.000
      47 -> 48         0.70382
 This state for optimization and/or second-order correction.
 Total Energy, E(TD-HF/TD-DFT) =  -539.479050463
 Copying the excited state density for this state as the 1-particle RhoCI density.

 The electronic state is 1-A'.
 Alpha  occ. eigenvalues --  -10.77167 -10.75249 -10.74551 -10.73457 -10.73126
 Alpha  occ. eigenvalues --  -10.71034 -10.70789 -10.70510 -10.70276 -10.69452
 Alpha  occ. eigenvalues --  -10.68914 -10.68242 -10.68093 -10.67020  -1.19112
 Alpha  occ. eigenvalues --   -1.12748  -1.09635  -1.06694  -1.02638  -1.00921
 Alpha  occ. eigenvalues --   -0.95282  -0.89319  -0.86554  -0.85146  -0.83063
 Alpha  occ. eigenvalues --   -0.77720  -0.76825  -0.74421  -0.72108  -0.69453
 Alpha  occ. eigenvalues --   -0.68673  -0.68518  -0.66786  -0.65387  -0.63690
 Alpha  occ. eigenvalues --   -0.62991  -0.62249  -0.60504  -0.57679  -0.57483
 Alpha  occ. eigenvalues --   -0.55514  -0.54782  -0.53392  -0.52308  -0.50456
 Alpha  occ. eigenvalues --   -0.46658  -0.38481
 Alpha virt. eigenvalues --   -0.26852  -0.14928  -0.12944  -0.11569  -0.11544
 Alpha virt. eigenvalues --   -0.10253  -0.09714  -0.07830  -0.07654  -0.07614
 Alpha virt. eigenvalues --   -0.07324  -0.06463  -0.05808  -0.05659  -0.05472

 Mulliken charges:
               1
     1  C   -0.041416
     2  C   -0.445579
     3  C   -0.445382
     4  C    0.037844
     5  C    0.050911
     6  C   -0.477495
     7  C   -0.352520
     8  C    0.118117
     9  C   -0.455972
    10  C   -0.057085
    11  C   -0.281941
    12  C    0.814647
    13  C   -0.610835
    14  C    0.516546
    15  H    0.234390
    16  H    0.234891
    17  H    0.242179
    18  H    0.195994
    19  H    0.177721
    20  H    0.244027
    21  H    0.262662
    22  H    0.285237
    23  H    0.248972
    24  H    0.252043
    25  H    0.252043
 Sum of Mulliken charges =   1.00000

 Dipole moment (field-independent basis, Debye):
    X=             -2.2962    Y=             -4.6869    Z=              0.0000  Tot=              5.2192
 Quadrupole moment (field-independent basis, Debye-Ang):
   XX=            -48.5088   YY=            -36.0447   ZZ=            -83.7768
   XY=             13.0120   XZ=             -0.0000   YZ=             -0.0000

 Normal termination of Gaussian 16 at Tue Aug  2 12:11:42 2022.
