 Gaussian 16, Revision C.01,
 Gaussian 16:  ES64L-G16RevC.01  3-Jul-2019

 ---------------------------------------------------------------
 #n M062X/6-311++G(d,p) TD(NStates=1) EmpiricalDispersion=GD3 SP
 ---------------------------------------------------------------

 -----
 SP_-4
 -----
 Symbolic Z-matrix:
 Charge =  1 Multiplicity = 1

                         Standard orientation:
 ---------------------------------------------------------------------
 Center     Atomic      Atomic             Coordinates (Angstroms)
 Number     Number       Type             X           Y           Z
 ---------------------------------------------------------------------
      1          6           0        2.486565    1.609382    0.000000
      2          6           0        2.425639    2.994734    0.000000
      3          6           0        1.184713    3.555926    0.000000
      4          6           0       -0.050069    2.690888    0.000000
      5          6           0       -2.541272   -1.561283    0.000000
      6          6           0       -2.432941   -2.862976    0.000000
      7          6           0       -1.159928   -3.482066    0.000000
      8          6           0        0.009024   -2.717610    0.000000
      9          6           0        1.281100   -0.686508    0.000000
     10          6           0       -1.297312    0.606779    0.000000
     11          6           0        1.229963    0.749605    0.000000
     12          6           0        0.000000    1.351625    0.000000
     13          6           0       -0.055505   -1.424126    0.000000
     14          6           0       -1.331909   -0.740492    0.000000
     15          1           0        3.439518    1.094316    0.000000
     16          1           0        3.316882    3.604142    0.000000
     17          1           0        1.033181    4.631134    0.000000
     18          1           0       -1.002504    3.205452    0.000000
     19          1           0       -2.188966    1.228983    0.000000
     20          1           0       -3.497938   -1.054421    0.000000
     21          1           0       -3.314362   -3.498495    0.000000
     22          1           0       -1.078170   -4.562120    0.000000
     23          1           0        0.966392   -3.224640    0.000000
     24          1           0        1.918784   -0.963813    0.859585
     25          1           0        1.918784   -0.963813   -0.859585
 ---------------------------------------------------------------------

 SCF Done:  E(RM062X) =  -539.704153823     A.U. after   16 cycles

 Excitation energies and oscillator strengths:

 Excited State   1:      Singlet-A'     2.1801 eV  568.70 nm  f=0.0125  <S**2>=0.000
      47 -> 48         0.70343
 This state for optimization and/or second-order correction.
 Total Energy, E(TD-HF/TD-DFT) =  -539.624034936
 Copying the excited state density for this state as the 1-particle RhoCI density.

 The electronic state is 1-A'.
 Alpha  occ. eigenvalues --  -10.77060 -10.74221 -10.74011 -10.73459 -10.72776
 Alpha  occ. eigenvalues --  -10.71829 -10.70887 -10.70776 -10.70561 -10.70192
 Alpha  occ. eigenvalues --  -10.69714 -10.69642 -10.68793 -10.68617  -1.17233
 Alpha  occ. eigenvalues --   -1.12497  -1.06949  -1.06620  -1.01470  -1.01076
 Alpha  occ. eigenvalues --   -0.94876  -0.90781  -0.86749  -0.85516  -0.83457
 Alpha  occ. eigenvalues --   -0.77976  -0.76671  -0.74137  -0.70730  -0.69078
 Alpha  occ. eigenvalues --   -0.68201  -0.67856  -0.67764  -0.66302  -0.63876
 Alpha  occ. eigenvalues --   -0.61984  -0.61454  -0.61079  -0.59198  -0.58451
 Alpha  occ. eigenvalues --   -0.56730  -0.55436  -0.53061  -0.52423  -0.49551
 Alpha  occ. eigenvalues --   -0.46237  -0.41681
 Alpha virt. eigenvalues --   -0.26272  -0.14795  -0.13801  -0.12490  -0.11279
 Alpha virt. eigenvalues --   -0.10128  -0.09417  -0.07876  -0.07741  -0.07559
 Alpha virt. eigenvalues --   -0.07240  -0.07047  -0.05701  -0.05544  -0.05450

 Mulliken charges:
               1
     1  C    0.012254
     2  C   -0.436781
     3  C   -0.446801
     4  C    0.062238
     5  C   -0.022681
     6  C   -0.462730
     7  C   -0.366307
     8  C    0.141629
     9  C   -0.399497
    10  C    0.026148
    11  C   -0.526501
    12  C    0.823323
    13  C   -0.619124
    14  C    0.588805
    15  H    0.235827
    16  H    0.242480
    17  H    0.244222
    18  H    0.205587
    19  H    0.188910
    20  H    0.236345
    21  H    0.256891
    22  H    0.272206
    23  H    0.244484
    24  H    0.249536
    25  H    0.249536
 Sum of Mulliken charges =   1.00000

 Dipole moment (field-independent basis, Debye):
    X=             -1.4850    Y=             -2.4800    Z=              0.0000  Tot=              2.8906
 Quadrupole moment (field-independent basis, Debye-Ang):
   XX=            -49.3417   YY=            -37.1947   ZZ=            -84.0709
   XY=             11.6205   XZ=              0.0000   YZ=              0.0000

 Normal termination of Gaussian 16 at Tue Aug  2 12:26:35 2022.
