 Gaussian 16, Revision C.01,
 Gaussian 16:  ES64L-G16RevC.01  3-Jul-2019

 ---------------------------------------------------------------
 #n M062X/6-311++G(d,p) TD(NStates=1) EmpiricalDispersion=GD3 SP
 ---------------------------------------------------------------

 -----
 SP_10
 -----
 Symbolic Z-matrix:
 Charge =  1 Multiplicity = 1

                         Standard orientation:
 ---------------------------------------------------------------------
 Center     Atomic      Atomic             Coordinates (Angstroms)
 Number     Number       Type             X           Y           Z
 ---------------------------------------------------------------------
      1          6           0       -2.234786   -1.579307    0.000000
      2          6           0       -1.990545   -2.978106    0.000000
      3          6           0       -0.673066   -3.626867    0.000000
      4          6           0        0.246377   -3.013266    0.000000
      5          6           0        2.169174    1.523999    0.000000
      6          6           0        2.058264    3.224519    0.000000
      7          6           0        0.904713    3.837650    0.000000
      8          6           0       -0.134624    2.942260    0.000000
      9          6           0       -1.288346    0.677993    0.000000
     10          6           0        1.175424   -0.868319    0.000000
     11          6           0       -1.319875   -0.902268    0.000000
     12          6           0        0.093507   -1.494688    0.000000
     13          6           0        0.000000    1.270627    0.000000
     14          6           0        1.167229    0.735916    0.000000
     15          1           0       -3.276322   -1.253179    0.000000
     16          1           0       -2.861520   -3.625276    0.000000
     17          1           0       -0.686067   -4.711868    0.000000
     18          1           0        1.287359   -3.338934    0.000000
     19          1           0        2.155748   -1.324162    0.000000
     20          1           0        3.213787    1.206334    0.000000
     21          1           0        3.032268    3.724078    0.000000
     22          1           0        0.781188    4.905366    0.000000
     23          1           0       -1.179949    3.260040    0.000000
     24          1           0       -1.753586    1.328373    0.859585
     25          1           0       -1.753586    1.328373   -0.859585
 ---------------------------------------------------------------------

 SCF Done:  E(RM062X) =  -539.345958564     A.U. after   17 cycles

 Excitation energies and oscillator strengths:

 Excited State   1:      Singlet-A'     1.1677 eV 1061.78 nm  f=0.0576  <S**2>=0.000
      47 -> 48         0.70574
 This state for optimization and/or second-order correction.
 Total Energy, E(TD-HF/TD-DFT) =  -539.303046278
 Copying the excited state density for this state as the 1-particle RhoCI density.

 The electronic state is 1-A'.
 Alpha  occ. eigenvalues --  -10.78317 -10.75069 -10.73690 -10.72559 -10.72116
 Alpha  occ. eigenvalues --  -10.71124 -10.70844 -10.70685 -10.69633 -10.69353
 Alpha  occ. eigenvalues --  -10.68566 -10.68495 -10.68169 -10.66486  -1.20055
 Alpha  occ. eigenvalues --   -1.12958  -1.11626  -1.06729  -1.02619  -1.01291
 Alpha  occ. eigenvalues --   -0.95646  -0.88497  -0.86291  -0.84763  -0.83629
 Alpha  occ. eigenvalues --   -0.77685  -0.76643  -0.74568  -0.72805  -0.69791
 Alpha  occ. eigenvalues --   -0.69138  -0.68037  -0.66561  -0.64910  -0.63535
 Alpha  occ. eigenvalues --   -0.63386  -0.63152  -0.59997  -0.57972  -0.56279
 Alpha  occ. eigenvalues --   -0.55210  -0.54683  -0.53333  -0.52444  -0.48823
 Alpha  occ. eigenvalues --   -0.47496  -0.36979
 Alpha virt. eigenvalues --   -0.27059  -0.15573  -0.12669  -0.11564  -0.10353
 Alpha virt. eigenvalues --   -0.10279  -0.09830  -0.07812  -0.07699  -0.07533
 Alpha virt. eigenvalues --   -0.07344  -0.06146  -0.05812  -0.05424  -0.05349

 Mulliken charges:
               1
     1  C   -0.073988
     2  C   -0.405633
     3  C   -0.351466
     4  C   -0.089762
     5  C   -0.199544
     6  C   -0.393366
     7  C   -0.445507
     8  C    0.281560
     9  C   -0.490341
    10  C   -0.151310
    11  C   -0.704154
    12  C    0.620013
    13  C    0.155962
    14  C    0.609028
    15  H    0.243589
    16  H    0.281674
    17  H    0.261258
    18  H    0.230948
    19  H    0.167344
    20  H    0.216860
    21  H    0.235398
    22  H    0.236941
    23  H    0.230395
    24  H    0.267050
    25  H    0.267050
 Sum of Mulliken charges =   1.00000

 Dipole moment (field-independent basis, Debye):
    X=             -2.9045    Y=             -4.6202    Z=              0.0000  Tot=              5.4573
 Quadrupole moment (field-independent basis, Debye-Ang):
   XX=            -53.3489   YY=            -30.1400   ZZ=            -83.5188
   XY=             10.1295   XZ=             -0.0000   YZ=              0.0000

 Normal termination of Gaussian 16 at Tue Aug  2 13:19:54 2022.
