 Gaussian 16, Revision C.01,
 Gaussian 16:  ES64L-G16RevC.01  3-Jul-2019

 ---------------------------------------------------------------
 #n M062X/6-311++G(d,p) TD(NStates=1) EmpiricalDispersion=GD3 SP
 ---------------------------------------------------------------

 ----
 SP_6
 ----
 Symbolic Z-matrix:
 Charge =  1 Multiplicity = 1

                         Standard orientation:
 ---------------------------------------------------------------------
 Center     Atomic      Atomic             Coordinates (Angstroms)
 Number     Number       Type             X           Y           Z
 ---------------------------------------------------------------------
      1          6           0       -0.009668   -2.690153    0.000000
      2          6           0        1.175421   -3.437026    0.000000
      3          6           0        2.467815   -2.819039    0.000000
      4          6           0        2.583351   -1.575243    0.000000
      5          6           0        0.041317    2.647889    0.000000
      6          6           0       -1.240288    3.549167    0.000000
      7          6           0       -2.472943    3.004807    0.000000
      8          6           0       -2.510480    1.623431    0.000000
      9          6           0       -1.284887   -0.679914    0.000000
     10          6           0        1.322502    0.562579    0.000000
     11          6           0        0.052979   -1.450728    0.000000
     12          6           0        1.346655   -0.748560    0.000000
     13          6           0       -1.205730    0.737440    0.000000
     14          6           0        0.000000    1.334408    0.000000
     15          1           0       -0.953594   -3.221557    0.000000
     16          1           0        1.097735   -4.518478    0.000000
     17          1           0        3.335958   -3.477396    0.000000
     18          1           0        3.526577   -1.044010    0.000000
     19          1           0        2.206901    1.196567    0.000000
     20          1           0        0.980270    3.186801    0.000000
     21          1           0       -1.062303    4.624807    0.000000
     22          1           0       -3.365709    3.610378    0.000000
     23          1           0       -3.449948    1.084015    0.000000
     24          1           0       -1.956075   -0.897733    0.859585
     25          1           0       -1.956075   -0.897733   -0.859585
 ---------------------------------------------------------------------

 SCF Done:  E(RM062X) =  -539.634601215     A.U. after   16 cycles

 Excitation energies and oscillator strengths:

 Excited State   1:      Singlet-A'     1.7711 eV  700.02 nm  f=0.0139  <S**2>=0.000
      47 -> 48         0.70341
 This state for optimization and/or second-order correction.
 Total Energy, E(TD-HF/TD-DFT) =  -539.569512844
 Copying the excited state density for this state as the 1-particle RhoCI density.

 The electronic state is 1-A'.
 Alpha  occ. eigenvalues --  -10.76197 -10.75655 -10.74566 -10.73515 -10.72924
 Alpha  occ. eigenvalues --  -10.71099 -10.70863 -10.70747 -10.70370 -10.69862
 Alpha  occ. eigenvalues --  -10.69450 -10.68867 -10.68473 -10.67643  -1.18100
 Alpha  occ. eigenvalues --   -1.12607  -1.08151  -1.06678  -1.02151  -1.00984
 Alpha  occ. eigenvalues --   -0.94851  -0.90171  -0.86678  -0.85400  -0.83336
 Alpha  occ. eigenvalues --   -0.77607  -0.77085  -0.74232  -0.71392  -0.69026
 Alpha  occ. eigenvalues --   -0.68612  -0.68257  -0.67245  -0.66082  -0.63783
 Alpha  occ. eigenvalues --   -0.62275  -0.61833  -0.61256  -0.58201  -0.57955
 Alpha  occ. eigenvalues --   -0.56214  -0.55344  -0.52446  -0.51735  -0.51513
 Alpha  occ. eigenvalues --   -0.46423  -0.39975
 Alpha virt. eigenvalues --   -0.26516  -0.14848  -0.13435  -0.12133  -0.11392
 Alpha virt. eigenvalues --   -0.10184  -0.09571  -0.07814  -0.07611  -0.07607
 Alpha virt. eigenvalues --   -0.07285  -0.06771  -0.05732  -0.05557  -0.05500

 Mulliken charges:
               1
     1  C    0.106469
     2  C   -0.366021
     3  C   -0.457494
     4  C    0.023142
     5  C    0.038685
     6  C   -0.456139
     7  C   -0.441297
     8  C    0.032795
     9  C   -0.416681
    10  C   -0.006994
    11  C   -0.636360
    12  C    0.598049
    13  C   -0.410173
    14  C    0.766257
    15  H    0.246365
    16  H    0.278419
    17  H    0.259951
    18  H    0.239261
    19  H    0.182233
    20  H    0.203689
    21  H    0.241301
    22  H    0.237860
    23  H    0.234506
    24  H    0.251089
    25  H    0.251089
 Sum of Mulliken charges =   1.00000

 Dipole moment (field-independent basis, Debye):
    X=              1.9898    Y=             -3.6615    Z=             -0.0000  Tot=              4.1673
 Quadrupole moment (field-independent basis, Debye-Ang):
   XX=            -48.7110   YY=            -36.9476   ZZ=            -83.9225
   XY=            -12.3931   XZ=             -0.0000   YZ=             -0.0000

 Normal termination of Gaussian 16 at Tue Aug  2 13:00:45 2022.
