 Gaussian 16, Revision C.01,
 Gaussian 16:  ES64L-G16RevC.01  3-Jul-2019

 ---------------------------------------------------------------
 #n M062X/6-311++G(d,p) TD(NStates=1) EmpiricalDispersion=GD3 SP
 ---------------------------------------------------------------

 ------
 SP_-14
 ------
 Symbolic Z-matrix:
 Charge =  1 Multiplicity = 1

                         Standard orientation:
 ---------------------------------------------------------------------
 Center     Atomic      Atomic             Coordinates (Angstroms)
 Number     Number       Type             X           Y           Z
 ---------------------------------------------------------------------
      1          6           0        2.603173    1.746006    0.000000
      2          6           0        2.593306    3.111821    0.000000
      3          6           0        1.367088    3.540137    0.000000
      4          6           0       -0.060683    2.445361    0.000000
      5          6           0       -2.745138   -1.698607    0.000000
      6          6           0       -2.542404   -2.716106    0.000000
      7          6           0       -1.148063   -3.278304    0.000000
      8          6           0        0.064833   -2.546729    0.000000
      9          6           0        1.311216   -0.632556    0.000000
     10          6           0       -1.430581    0.368169    0.000000
     11          6           0        1.135175    0.705760    0.000000
     12          6           0        0.000000    1.240277    0.000000
     13          6           0       -0.042662   -1.527392    0.000000
     14          6           0       -1.426611   -0.798266    0.000000
     15          1           0        3.513595    1.154355    0.000000
     16          1           0        3.464780    3.745371    0.000000
     17          1           0        1.038322    4.612502    0.000000
     18          1           0       -0.970591    3.036509    0.000000
     19          1           0       -2.275263    1.073631    0.000000
     20          1           0       -3.659317   -1.115140    0.000000
     21          1           0       -3.333731   -3.504253    0.000000
     22          1           0       -1.035374   -4.363056    0.000000
     23          1           0        0.979711   -3.130367    0.000000
     24          1           0        2.102985   -0.633492    0.859585
     25          1           0        2.102985   -0.633492   -0.859585
 ---------------------------------------------------------------------

 SCF Done:  E(RM062X) =  -538.943986846     A.U. after   17 cycles

 Excitation energies and oscillator strengths:

 Excited State   1:      Singlet-A'     0.8966 eV 1382.75 nm  f=0.0821  <S**2>=0.000
      47 -> 48         0.73365
      47 <- 48        -0.21630
 This state for optimization and/or second-order correction.
 Total Energy, E(TD-HF/TD-DFT) =  -538.911035599
 Copying the excited state density for this state as the 1-particle RhoCI density.

 The electronic state is 1-A'.
 Alpha  occ. eigenvalues --  -10.78913 -10.73272 -10.71459 -10.71272 -10.70861
 Alpha  occ. eigenvalues --  -10.70742 -10.70558 -10.70506 -10.69204 -10.69197
 Alpha  occ. eigenvalues --  -10.69026 -10.67848 -10.66902 -10.66801  -1.21459
 Alpha  occ. eigenvalues --   -1.14246  -1.13240  -1.07171  -1.04169  -1.02250
 Alpha  occ. eigenvalues --   -0.96291  -0.87722  -0.85925  -0.83854  -0.83195
 Alpha  occ. eigenvalues --   -0.77199  -0.76158  -0.74699  -0.74091  -0.70314
 Alpha  occ. eigenvalues --   -0.69470  -0.69042  -0.66857  -0.64584  -0.64451
 Alpha  occ. eigenvalues --   -0.62229  -0.62039  -0.59740  -0.58435  -0.56698
 Alpha  occ. eigenvalues --   -0.56086  -0.54967  -0.52819  -0.50913  -0.48844
 Alpha  occ. eigenvalues --   -0.46538  -0.35230
 Alpha virt. eigenvalues --   -0.27543  -0.16296  -0.11605  -0.10424  -0.10308
 Alpha virt. eigenvalues --   -0.09882  -0.08717  -0.07894  -0.07786  -0.07384
 Alpha virt. eigenvalues --   -0.07159  -0.06386  -0.05960  -0.05538  -0.05454

 Mulliken charges:
               1
     1  C    0.030404
     2  C   -0.466343
     3  C   -0.342611
     4  C   -0.106977
     5  C    0.059432
     6  C   -0.393466
     7  C   -0.471648
     8  C    0.003700
     9  C   -0.362623
    10  C   -0.080465
    11  C    0.091067
    12  C    0.706082
    13  C   -0.735474
    14  C    0.451316
    15  H    0.231381
    16  H    0.239044
    17  H    0.248755
    18  H    0.197265
    19  H    0.148234
    20  H    0.236965
    21  H    0.258154
    22  H    0.280911
    23  H    0.241694
    24  H    0.267602
    25  H    0.267602
 Sum of Mulliken charges =   1.00000

 Dipole moment (field-independent basis, Debye):
    X=             -1.6186    Y=             -4.9053    Z=             -0.0000  Tot=              5.1654
 Quadrupole moment (field-independent basis, Debye-Ang):
   XX=            -46.6039   YY=            -35.5810   ZZ=            -82.7861
   XY=             15.0724   XZ=             -0.0000   YZ=              0.0000

 Normal termination of Gaussian 16 at Tue Aug  2 11:47:22 2022.
