 Gaussian 16, Revision C.01,
 Gaussian 16:  ES64L-G16RevC.01  3-Jul-2019

 ---------------------------------------------------------------
 #n M062X/6-311++G(d,p) TD(NStates=1) EmpiricalDispersion=GD3 SP
 ---------------------------------------------------------------

 ----
 SP_4
 ----
 Symbolic Z-matrix:
 Charge =  1 Multiplicity = 1

                         Standard orientation:
 ---------------------------------------------------------------------
 Center     Atomic      Atomic             Coordinates (Angstroms)
 Number     Number       Type             X           Y           Z
 ---------------------------------------------------------------------
      1          6           0       -2.324154   -1.533939    0.000000
      2          6           0       -2.235482   -2.931517    0.000000
      3          6           0       -0.984361   -3.598783    0.000000
      4          6           0        0.110683   -2.921206    0.000000
      5          6           0        2.315641    1.484564    0.000000
      6          6           0        2.284664    3.005245    0.000000
      7          6           0        1.106603    3.674481    0.000000
      8          6           0       -0.035253    2.894858    0.000000
      9          6           0       -1.276959    0.694702    0.000000
     10          6           0        1.215867   -0.760243    0.000000
     11          6           0       -1.237069   -0.823100    0.000000
     12          6           0        0.067568   -1.469693    0.000000
     13          6           0        0.000000    1.378839    0.000000
     14          6           0        1.196779    0.732643    0.000000
     15          1           0       -3.304547   -1.071619    0.000000
     16          1           0       -3.147886   -3.512731    0.000000
     17          1           0       -0.977509   -4.680030    0.000000
     18          1           0        1.090546   -3.383038    0.000000
     19          1           0        2.183609   -1.242383    0.000000
     20          1           0        3.299538    1.030538    0.000000
     21          1           0        3.240770    3.516772    0.000000
     22          1           0        1.060102    4.751280    0.000000
     23          1           0       -1.019855    3.349034    0.000000
     24          1           0       -1.825967    1.140536    0.859585
     25          1           0       -1.825967    1.140536   -0.859585
 ---------------------------------------------------------------------

 SCF Done:  E(RM062X) =  -539.703373911     A.U. after   16 cycles

 Excitation energies and oscillator strengths:

 Excited State   1:      Singlet-A'     2.1413 eV  579.02 nm  f=0.0130  <S**2>=0.000
      47 -> 48         0.70312
 This state for optimization and/or second-order correction.
 Total Energy, E(TD-HF/TD-DFT) =  -539.624682934
 Copying the excited state density for this state as the 1-particle RhoCI density.

 The electronic state is 1-A'.
 Alpha  occ. eigenvalues --  -10.76932 -10.74518 -10.74185 -10.73277 -10.72290
 Alpha  occ. eigenvalues --  -10.71743 -10.71075 -10.70885 -10.70568 -10.70225
 Alpha  occ. eigenvalues --  -10.69841 -10.69378 -10.68880 -10.68407  -1.17233
 Alpha  occ. eigenvalues --   -1.12559  -1.07039  -1.06643  -1.01458  -1.01126
 Alpha  occ. eigenvalues --   -0.94879  -0.90749  -0.86543  -0.85727  -0.83704
 Alpha  occ. eigenvalues --   -0.77846  -0.76774  -0.74210  -0.70660  -0.69439
 Alpha  occ. eigenvalues --   -0.67998  -0.67856  -0.67622  -0.66423  -0.64172
 Alpha  occ. eigenvalues --   -0.61987  -0.61511  -0.61181  -0.59012  -0.58391
 Alpha  occ. eigenvalues --   -0.56598  -0.55594  -0.52900  -0.52432  -0.49782
 Alpha  occ. eigenvalues --   -0.46283  -0.41515
 Alpha virt. eigenvalues --   -0.26269  -0.14796  -0.13788  -0.12545  -0.11275
 Alpha virt. eigenvalues --   -0.10141  -0.09424  -0.07851  -0.07666  -0.07541
 Alpha virt. eigenvalues --   -0.07260  -0.06984  -0.05672  -0.05527  -0.05447

 Mulliken charges:
               1
     1  C    0.039066
     2  C   -0.395999
     3  C   -0.418044
     4  C    0.055125
     5  C   -0.056446
     6  C   -0.459110
     7  C   -0.414003
     8  C    0.153331
     9  C   -0.374841
    10  C    0.045778
    11  C   -0.653061
    12  C    0.721199
    13  C   -0.510692
    14  C    0.645040
    15  H    0.242670
    16  H    0.270065
    17  H    0.256438
    18  H    0.230428
    19  H    0.184673
    20  H    0.215276
    21  H    0.240410
    22  H    0.243792
    23  H    0.233284
    24  H    0.252811
    25  H    0.252811
 Sum of Mulliken charges =   1.00000

 Dipole moment (field-independent basis, Debye):
    X=             -1.3186    Y=             -2.6200    Z=             -0.0000  Tot=              2.9331
 Quadrupole moment (field-independent basis, Debye-Ang):
   XX=            -51.6274   YY=            -34.9528   ZZ=            -84.0342
   XY=             10.1701   XZ=              0.0000   YZ=             -0.0000

 Normal termination of Gaussian 16 at Tue Aug  2 12:55:10 2022.
