 Gaussian 16, Revision C.01,
 Gaussian 16:  ES64L-G16RevC.01  3-Jul-2019

 ---------------------------------------------------------------
 #n M062X/6-311++G(d,p) TD(NStates=1) EmpiricalDispersion=GD3 SP
 ---------------------------------------------------------------

 -----
 SP_-2
 -----
 Symbolic Z-matrix:
 Charge =  1 Multiplicity = 1

                         Standard orientation:
 ---------------------------------------------------------------------
 Center     Atomic      Atomic             Coordinates (Angstroms)
 Number     Number       Type             X           Y           Z
 ---------------------------------------------------------------------
      1          6           0        2.464390    1.530225    0.000000
      2          6           0        2.445510    2.918872    0.000000
      3          6           0        1.223374    3.545028    0.000000
      4          6           0       -0.004567    2.764148    0.000000
      5          6           0       -2.504506   -1.481259    0.000000
      6          6           0       -2.461905   -2.834913    0.000000
      7          6           0       -1.232935   -3.505600    0.000000
      8          6           0       -0.043934   -2.778320    0.000000
      9          6           0        1.266182   -0.713527    0.000000
     10          6           0       -1.264424    0.667808    0.000000
     11          6           0        1.227623    0.745291    0.000000
     12          6           0        0.000000    1.394221    0.000000
     13          6           0       -0.057760   -1.427386    0.000000
     14          6           0       -1.295766   -0.715928    0.000000
     15          1           0        3.405996    0.994747    0.000000
     16          1           0        3.362049    3.488880    0.000000
     17          1           0        1.142917    4.624055    0.000000
     18          1           0       -0.945663    3.299117    0.000000
     19          1           0       -2.174733    1.253836    0.000000
     20          1           0       -3.449957   -0.953923    0.000000
     21          1           0       -3.379478   -3.409116    0.000000
     22          1           0       -1.198012   -4.586104    0.000000
     23          1           0        0.902215   -3.305835    0.000000
     24          1           0        1.883487   -1.028808    0.859585
     25          1           0        1.883487   -1.028808   -0.859585
 ---------------------------------------------------------------------

 SCF Done:  E(RM062X) =  -539.746353721     A.U. after   16 cycles

 Excitation energies and oscillator strengths:

 Excited State   1:      Singlet-A'     2.5682 eV  482.77 nm  f=0.0172  <S**2>=0.000
      47 -> 48         0.70332
 This state for optimization and/or second-order correction.
 Total Energy, E(TD-HF/TD-DFT) =  -539.651974121
 Copying the excited state density for this state as the 1-particle RhoCI density.

 The electronic state is 1-A'.
 Alpha  occ. eigenvalues --  -10.77510 -10.73815 -10.73048 -10.72555 -10.72457
 Alpha  occ. eigenvalues --  -10.72141 -10.71660 -10.70954 -10.70515 -10.70106
 Alpha  occ. eigenvalues --  -10.70103 -10.69843 -10.69702 -10.69174  -1.16652
 Alpha  occ. eigenvalues --   -1.12471  -1.06902  -1.05992  -1.01251  -1.00620
 Alpha  occ. eigenvalues --   -0.95413  -0.91018  -0.86583  -0.85734  -0.83719
 Alpha  occ. eigenvalues --   -0.78282  -0.76245  -0.74295  -0.70015  -0.69186
 Alpha  occ. eigenvalues --   -0.68291  -0.68124  -0.67920  -0.65521  -0.64123
 Alpha  occ. eigenvalues --   -0.62576  -0.61518  -0.60656  -0.59253  -0.59082
 Alpha  occ. eigenvalues --   -0.56892  -0.55435  -0.54166  -0.52434  -0.47739
 Alpha  occ. eigenvalues --   -0.46150  -0.43365
 Alpha virt. eigenvalues --   -0.26133  -0.14712  -0.14016  -0.12705  -0.11203
 Alpha virt. eigenvalues --   -0.10097  -0.09285  -0.07947  -0.07897  -0.07501
 Alpha virt. eigenvalues --   -0.07211  -0.07127  -0.05659  -0.05571  -0.05364

 Mulliken charges:
               1
     1  C    0.058485
     2  C   -0.423766
     3  C   -0.440830
     4  C    0.040216
     5  C   -0.010233
     6  C   -0.447526
     7  C   -0.387308
     8  C    0.120580
     9  C   -0.352256
    10  C    0.075574
    11  C   -0.602209
    12  C    0.748354
    13  C   -0.639908
    14  C    0.639617
    15  H    0.235666
    16  H    0.248912
    17  H    0.245907
    18  H    0.213860
    19  H    0.190044
    20  H    0.229573
    21  H    0.252740
    22  H    0.264165
    23  H    0.240569
    24  H    0.249887
    25  H    0.249887
 Sum of Mulliken charges =   1.00000

 Dipole moment (field-independent basis, Debye):
    X=             -0.8801    Y=             -1.2055    Z=             -0.0000  Tot=              1.4925
 Quadrupole moment (field-independent basis, Debye-Ang):
   XX=            -49.5670   YY=            -37.5936   ZZ=            -84.1240
   XY=             11.2153   XZ=             -0.0000   YZ=              0.0000

 Normal termination of Gaussian 16 at Tue Aug  2 12:33:19 2022.
