 Gaussian 16, Revision C.01,
 Gaussian 16:  ES64L-G16RevC.01  3-Jul-2019

 ---------------------------------------------------------------
 #n M062X/6-311++G(d,p) TD(NStates=1) EmpiricalDispersion=GD3 SP
 ---------------------------------------------------------------

 -----
 SP_-6
 -----
 Symbolic Z-matrix:
 Charge =  1 Multiplicity = 1

                         Standard orientation:
 ---------------------------------------------------------------------
 Center     Atomic      Atomic             Coordinates (Angstroms)
 Number     Number       Type             X           Y           Z
 ---------------------------------------------------------------------
      1          6           0        2.512780    1.557347    0.000000
      2          6           0        2.540800    2.936862    0.000000
      3          6           0        1.335051    3.529161    0.000000
      4          6           0        0.012416    2.677841    0.000000
      5          6           0       -2.589204   -1.507556    0.000000
      6          6           0       -2.530504   -2.745314    0.000000
      7          6           0       -1.263169   -3.414534    0.000000
      8          6           0       -0.042677   -2.723412    0.000000
      9          6           0        1.273861   -0.700741    0.000000
     10          6           0       -1.316171    0.580539    0.000000
     11          6           0        1.178997    0.721939    0.000000
     12          6           0        0.000000    1.360063    0.000000
     13          6           0       -0.054197   -1.480939    0.000000
     14          6           0       -1.325751   -0.731699    0.000000
     15          1           0        3.426234    0.973589    0.000000
     16          1           0        3.460088    3.498798    0.000000
     17          1           0        1.201946    4.609665    0.000000
     18          1           0       -0.900534    3.261083    0.000000
     19          1           0       -2.211914    1.190333    0.000000
     20          1           0       -3.506591   -0.931899    0.000000
     21          1           0       -3.422147   -3.365311    0.000000
     22          1           0       -1.236653   -4.497376    0.000000
     23          1           0        0.875406   -3.299256    0.000000
     24          1           0        1.960385   -0.898487    0.859585
     25          1           0        1.960385   -0.898487   -0.859585
 ---------------------------------------------------------------------

 SCF Done:  E(RM062X) =  -539.633427267     A.U. after   16 cycles

 Excitation energies and oscillator strengths:

 Excited State   1:      Singlet-A'     1.7575 eV  705.47 nm  f=0.0156  <S**2>=0.000
      47 -> 48         0.70320
 This state for optimization and/or second-order correction.
 Total Energy, E(TD-HF/TD-DFT) =  -539.568841706
 Copying the excited state density for this state as the 1-particle RhoCI density.

 The electronic state is 1-A'.
 Alpha  occ. eigenvalues --  -10.76100 -10.75722 -10.74727 -10.73408 -10.72628
 Alpha  occ. eigenvalues --  -10.71098 -10.70997 -10.70555 -10.70537 -10.69915
 Alpha  occ. eigenvalues --  -10.69295 -10.68952 -10.68506 -10.67538  -1.18110
 Alpha  occ. eigenvalues --   -1.12632  -1.08237  -1.06695  -1.02092  -1.01039
 Alpha  occ. eigenvalues --   -0.94857  -0.90155  -0.86623  -0.85445  -0.83512
 Alpha  occ. eigenvalues --   -0.77521  -0.77177  -0.74288  -0.71350  -0.69232
 Alpha  occ. eigenvalues --   -0.68625  -0.68120  -0.67166  -0.66126  -0.63931
 Alpha  occ. eigenvalues --   -0.62288  -0.61969  -0.61343  -0.57966  -0.57933
 Alpha  occ. eigenvalues --   -0.56183  -0.55437  -0.52445  -0.51649  -0.51634
 Alpha  occ. eigenvalues --   -0.46467  -0.39899
 Alpha virt. eigenvalues --   -0.26512  -0.14853  -0.13445  -0.12137  -0.11386
 Alpha virt. eigenvalues --   -0.10192  -0.09573  -0.07796  -0.07602  -0.07586
 Alpha virt. eigenvalues --   -0.07291  -0.06715  -0.05711  -0.05543  -0.05490

 Mulliken charges:
               1
     1  C    0.110316
     2  C   -0.433433
     3  C   -0.459987
     4  C   -0.012432
     5  C    0.038165
     6  C   -0.428857
     7  C   -0.383132
     8  C    0.059158
     9  C   -0.399848
    10  C    0.001012
    11  C   -0.391466
    12  C    0.679376
    13  C   -0.660280
    14  C    0.657769
    15  H    0.233131
    16  H    0.238401
    17  H    0.238980
    18  H    0.209077
    19  H    0.179736
    20  H    0.236309
    21  H    0.259474
    22  H    0.277075
    23  H    0.244997
    24  H    0.253228
    25  H    0.253228
 Sum of Mulliken charges =   1.00000

 Dipole moment (field-independent basis, Debye):
    X=             -2.0230    Y=             -3.6482    Z=              0.0000  Tot=              4.1716
 Quadrupole moment (field-independent basis, Debye-Ang):
   XX=            -48.2928   YY=            -37.3975   ZZ=            -83.8944
   XY=             12.6183   XZ=              0.0000   YZ=             -0.0000

 Normal termination of Gaussian 16 at Tue Aug  2 12:17:22 2022.
