 Gaussian 16, Revision C.01,
 Gaussian 16:  ES64L-G16RevC.01  3-Jul-2019

 ---------------------------------------------------------------
 #n M062X/6-311++G(d,p) TD(NStates=1) EmpiricalDispersion=GD3 SP
 ---------------------------------------------------------------

 -----
 SP_10
 -----
 Symbolic Z-matrix:
 Charge =  1 Multiplicity = 1

                         Standard orientation:
 ---------------------------------------------------------------------
 Center     Atomic      Atomic             Coordinates (Angstroms)
 Number     Number       Type             X           Y           Z
 ---------------------------------------------------------------------
      1          6           0       -2.243232   -1.507723    0.000000
      2          6           0       -2.070611   -2.912742    0.000000
      3          6           0       -0.783297   -3.617499    0.000000
      4          6           0        0.175036   -3.047897    0.000000
      5          6           0        2.180828    1.454430    0.000000
      6          6           0        2.143919    3.151337    0.000000
      7          6           0        1.015969    3.818029    0.000000
      8          6           0       -0.067733    2.977867    0.000000
      9          6           0       -1.274015    0.703648    0.000000
     10          6           0        1.158138   -0.887160    0.000000
     11          6           0       -1.299423   -0.875623    0.000000
     12          6           0        0.086022   -1.520238    0.000000
     13          6           0        0.000000    1.299470    0.000000
     14          6           0        1.148047    0.715347    0.000000
     15          1           0       -3.263870   -1.129877    0.000000
     16          1           0       -2.973334   -3.514360    0.000000
     17          1           0       -0.845469   -4.704754    0.000000
     18          1           0        1.195132   -3.425270    0.000000
     19          1           0        2.148305   -1.322932    0.000000
     20          1           0        3.204758    1.084965    0.000000
     21          1           0        3.141337    3.607175    0.000000
     22          1           0        0.947489    4.890678    0.000000
     23          1           0       -1.092372    3.347465    0.000000
     24          1           0       -1.739929    1.329720    0.859585
     25          1           0       -1.739929    1.329720   -0.859585
 ---------------------------------------------------------------------

 SCF Done:  E(RM062X) =  -539.361548470     A.U. after   16 cycles

 Excitation energies and oscillator strengths:

 Excited State   1:      Singlet-A'     1.1416 eV 1086.03 nm  f=0.0510  <S**2>=0.000
      47 -> 48         0.70563
 This state for optimization and/or second-order correction.
 Total Energy, E(TD-HF/TD-DFT) =  -539.319594460
 Copying the excited state density for this state as the 1-particle RhoCI density.

 The electronic state is 1-A'.
 Alpha  occ. eigenvalues --  -10.78344 -10.74894 -10.73642 -10.72614 -10.71731
 Alpha  occ. eigenvalues --  -10.71462 -10.70655 -10.70518 -10.69914 -10.69314
 Alpha  occ. eigenvalues --  -10.68435 -10.68353 -10.67973 -10.66450  -1.20114
 Alpha  occ. eigenvalues --   -1.12997  -1.11556  -1.06755  -1.02716  -1.01305
 Alpha  occ. eigenvalues --   -0.95751  -0.88493  -0.86351  -0.84641  -0.83690
 Alpha  occ. eigenvalues --   -0.77799  -0.76636  -0.74636  -0.72852  -0.69755
 Alpha  occ. eigenvalues --   -0.69130  -0.68242  -0.66552  -0.64777  -0.63648
 Alpha  occ. eigenvalues --   -0.63414  -0.63319  -0.60038  -0.57941  -0.56311
 Alpha  occ. eigenvalues --   -0.55418  -0.54805  -0.53390  -0.52450  -0.48885
 Alpha  occ. eigenvalues --   -0.47412  -0.37008
 Alpha virt. eigenvalues --   -0.27112  -0.15402  -0.12500  -0.11588  -0.10416
 Alpha virt. eigenvalues --   -0.10345  -0.09813  -0.07802  -0.07710  -0.07554
 Alpha virt. eigenvalues --   -0.07330  -0.06143  -0.05814  -0.05427  -0.05419

 Mulliken charges:
               1
     1  C   -0.033796
     2  C   -0.412301
     3  C   -0.371196
     4  C   -0.026972
     5  C   -0.133436
     6  C   -0.409358
     7  C   -0.455052
     8  C    0.227774
     9  C   -0.438392
    10  C   -0.110049
    11  C   -0.706082
    12  C    0.611839
    13  C    0.014921
    14  C    0.611760
    15  H    0.243588
    16  H    0.282598
    17  H    0.261579
    18  H    0.234743
    19  H    0.164959
    20  H    0.211717
    21  H    0.236249
    22  H    0.235615
    23  H    0.230355
    24  H    0.264470
    25  H    0.264470
 Sum of Mulliken charges =   1.00000

 Dipole moment (field-independent basis, Debye):
    X=             -3.0156    Y=             -4.6992    Z=              0.0000  Tot=              5.5836
 Quadrupole moment (field-independent basis, Debye-Ang):
   XX=            -52.8293   YY=            -30.7301   ZZ=            -83.4647
   XY=             10.5827   XZ=             -0.0000   YZ=              0.0000

 Normal termination of Gaussian 16 at Tue Aug  2 13:18:46 2022.
