 Gaussian 16, Revision C.01,
 Gaussian 16:  ES64L-G16RevC.01  3-Jul-2019

 ---------------------------------------------------------------
 #n M062X/6-311++G(d,p) TD(NStates=1) EmpiricalDispersion=GD3 SP
 ---------------------------------------------------------------

 ----
 SP_0
 ----
 Symbolic Z-matrix:
 Charge =  1 Multiplicity = 1

                         Standard orientation:
 ---------------------------------------------------------------------
 Center     Atomic      Atomic             Coordinates (Angstroms)
 Number     Number       Type             X           Y           Z
 ---------------------------------------------------------------------
      1          6           0        0.190566    2.732702    0.000000
      2          6           0       -0.865180    3.636066    0.000000
      3          6           0       -2.148393    3.125276    0.000000
      4          6           0       -2.372430    1.712438    0.000000
      5          6           0       -0.253749   -2.736315    0.000000
      6          6           0        0.807291   -3.623979    0.000000
      7          6           0        2.115922   -3.140458    0.000000
      8          6           0        2.355330   -1.760018    0.000000
      9          6           0        1.315884    0.617483    0.000000
     10          6           0       -1.288547   -0.619318    0.000000
     11          6           0       -0.000000    1.343800    0.000000
     12          6           0       -1.287625    0.803684    0.000000
     13          6           0        1.264922   -0.854974    0.000000
     14          6           0       -0.064755   -1.360088    0.000000
     15          1           0        1.214840    3.096114    0.000000
     16          1           0       -0.673581    4.701596    0.000000
     17          1           0       -3.002790    3.795228    0.000000
     18          1           0       -3.395991    1.349139    0.000000
     19          1           0       -2.213031   -1.199453    0.000000
     20          1           0       -1.273707   -3.107630    0.000000
     21          1           0        0.613368   -4.686339    0.000000
     22          1           0        2.943236   -3.839960    0.000000
     23          1           0        3.375844   -1.388245    0.000000
     24          1           0        1.898194    1.010875    0.859585
     25          1           0        1.898194    1.010875   -0.859585
 ---------------------------------------------------------------------

 SCF Done:  E(RM062X) =  -539.742790662     A.U. after   15 cycles

 Excitation energies and oscillator strengths:

 Excited State   1:      Singlet-A'     2.7939 eV  443.78 nm  f=0.0292  <S**2>=0.000
      47 -> 48         0.70410
 This state for optimization and/or second-order correction.
 Total Energy, E(TD-HF/TD-DFT) =  -539.640118532
 Copying the excited state density for this state as the 1-particle RhoCI density.

 The electronic state is 1-A'.
 Alpha  occ. eigenvalues --  -10.77984 -10.73655 -10.73037 -10.72764 -10.72371
 Alpha  occ. eigenvalues --  -10.71931 -10.71416 -10.71283 -10.70988 -10.70784
 Alpha  occ. eigenvalues --  -10.70657 -10.70012 -10.69558 -10.69428  -1.16431
 Alpha  occ. eigenvalues --   -1.12397  -1.06845  -1.05673  -1.01308  -1.00131
 Alpha  occ. eigenvalues --   -0.95634  -0.90864  -0.86863  -0.85389  -0.83704
 Alpha  occ. eigenvalues --   -0.78235  -0.75911  -0.74219  -0.69609  -0.69381
 Alpha  occ. eigenvalues --   -0.68416  -0.67927  -0.67904  -0.64649  -0.64176
 Alpha  occ. eigenvalues --   -0.62758  -0.61574  -0.59920  -0.59571  -0.58977
 Alpha  occ. eigenvalues --   -0.56654  -0.55321  -0.54722  -0.52362  -0.46649
 Alpha  occ. eigenvalues --   -0.46034  -0.44379
 Alpha virt. eigenvalues --   -0.26071  -0.14790  -0.14187  -0.12826  -0.11213
 Alpha virt. eigenvalues --   -0.10120  -0.09234  -0.08003  -0.08002  -0.07508
 Alpha virt. eigenvalues --   -0.07232  -0.07182  -0.05689  -0.05587  -0.05332

 Mulliken charges:
               1
     1  C    0.267586
     2  C   -0.356274
     3  C   -0.454257
     4  C   -0.258988
     5  C    0.127917
     6  C   -0.393048
     7  C   -0.425882
     8  C   -0.099311
     9  C   -0.432881
    10  C    0.028827
    11  C   -0.532912
    12  C    0.493952
    13  C   -0.592828
    14  C    0.987684
    15  H    0.239902
    16  H    0.259396
    17  H    0.249041
    18  H    0.230742
    19  H    0.200920
    20  H    0.206335
    21  H    0.253056
    22  H    0.255485
    23  H    0.241708
    24  H    0.251915
    25  H    0.251915
 Sum of Mulliken charges =   1.00000

 Dipole moment (field-independent basis, Debye):
    X=             -0.1224    Y=             -0.1713    Z=             -0.0000  Tot=              0.2105
 Quadrupole moment (field-independent basis, Debye-Ang):
   XX=            -51.8213   YY=            -35.4378   ZZ=            -84.2935
   XY=             -9.6271   XZ=             -0.0000   YZ=             -0.0000

 Normal termination of Gaussian 16 at Tue Aug  2 12:36:39 2022.
