 Gaussian 16, Revision C.01,
 Gaussian 16:  ES64L-G16RevC.01  3-Jul-2019

 ---------------------------------------------------------------
 #n M062X/6-311++G(d,p) TD(NStates=1) EmpiricalDispersion=GD3 SP
 ---------------------------------------------------------------

 -----
 SP_10
 -----
 Symbolic Z-matrix:
 Charge =  1 Multiplicity = 1

                         Standard orientation:
 ---------------------------------------------------------------------
 Center     Atomic      Atomic             Coordinates (Angstroms)
 Number     Number       Type             X           Y           Z
 ---------------------------------------------------------------------
      1          6           0        0.041730   -2.668849    0.000000
      2          6           0        1.293427   -3.322508    0.000000
      3          6           0        2.598925   -2.653093    0.000000
      4          6           0        2.675636   -1.530658    0.000000
      5          6           0       -0.028967    2.591488    0.000000
      6          6           0       -1.448498    3.510455    0.000000
      7          6           0       -2.638438    2.951620    0.000000
      8          6           0       -2.562951    1.582139    0.000000
      9          6           0       -1.281582   -0.688935    0.000000
     10          6           0        1.369699    0.495272    0.000000
     11          6           0        0.052684   -1.534706    0.000000
     12          6           0        1.356656   -0.746129    0.000000
     13          6           0       -1.130408    0.699107    0.000000
     14          6           0        0.000000    1.326078    0.000000
     15          1           0       -0.846992   -3.292967    0.000000
     16          1           0        1.275978   -4.407643    0.000000
     17          1           0        3.466133   -3.319028    0.000000
     18          1           0        3.563664   -0.906735    0.000000
     19          1           0        2.250108    1.129076    0.000000
     20          1           0        0.854536    3.222944    0.000000
     21          1           0       -1.263386    4.593824    0.000000
     22          1           0       -3.560719    3.504971    0.000000
     23          1           0       -3.446952    0.950162    0.000000
     24          1           0       -2.039925   -0.771146    0.859585
     25          1           0       -2.039925   -0.771146   -0.859585
 ---------------------------------------------------------------------

 SCF Done:  E(RM062X) =  -539.373671996     A.U. after   16 cycles

 Excitation energies and oscillator strengths:

 Excited State   1:      Singlet-A'     1.1178 eV 1109.21 nm  f=0.0447  <S**2>=0.000
      47 -> 48         0.70548
 This state for optimization and/or second-order correction.
 Total Energy, E(TD-HF/TD-DFT) =  -539.332594686
 Copying the excited state density for this state as the 1-particle RhoCI density.

 The electronic state is 1-A'.
 Alpha  occ. eigenvalues --  -10.78377 -10.74730 -10.73668 -10.72705 -10.71831
 Alpha  occ. eigenvalues --  -10.71394 -10.70482 -10.70377 -10.70213 -10.69316
 Alpha  occ. eigenvalues --  -10.68327 -10.68233 -10.67805 -10.66447  -1.20152
 Alpha  occ. eigenvalues --   -1.13026  -1.11462  -1.06778  -1.02819  -1.01270
 Alpha  occ. eigenvalues --   -0.95828  -0.88496  -0.86380  -0.84625  -0.83607
 Alpha  occ. eigenvalues --   -0.77866  -0.76609  -0.74678  -0.72886  -0.69796
 Alpha  occ. eigenvalues --   -0.69002  -0.68437  -0.66537  -0.64658  -0.63826
 Alpha  occ. eigenvalues --   -0.63455  -0.63234  -0.60018  -0.57897  -0.56433
 Alpha  occ. eigenvalues --   -0.55490  -0.54887  -0.53438  -0.52440  -0.48951
 Alpha  occ. eigenvalues --   -0.47318  -0.37040
 Alpha virt. eigenvalues --   -0.27158  -0.15264  -0.12365  -0.11615  -0.10555
 Alpha virt. eigenvalues --   -0.10340  -0.09806  -0.07804  -0.07717  -0.07576
 Alpha virt. eigenvalues --   -0.07325  -0.06145  -0.05826  -0.05495  -0.05433

 Mulliken charges:
               1
     1  C    0.000121
     2  C   -0.406544
     3  C   -0.395539
     4  C    0.019694
     5  C   -0.076395
     6  C   -0.418217
     7  C   -0.459127
     8  C    0.155950
     9  C   -0.414315
    10  C   -0.081886
    11  C   -0.699525
    12  C    0.592805
    13  C   -0.069371
    14  C    0.626755
    15  H    0.244521
    16  H    0.283964
    17  H    0.261925
    18  H    0.237935
    19  H    0.164586
    20  H    0.206411
    21  H    0.237699
    22  H    0.234703
    23  H    0.230568
    24  H    0.261641
    25  H    0.261641
 Sum of Mulliken charges =   1.00000

 Dipole moment (field-independent basis, Debye):
    X=              2.4160    Y=             -5.1633    Z=              0.0000  Tot=              5.7006
 Quadrupole moment (field-independent basis, Debye-Ang):
   XX=            -46.9194   YY=            -36.6691   ZZ=            -83.4457
   XY=            -14.3318   XZ=             -0.0000   YZ=             -0.0000

 Normal termination of Gaussian 16 at Tue Aug  2 13:17:38 2022.
