 Gaussian 16, Revision C.01,
 Gaussian 16:  ES64L-G16RevC.01  3-Jul-2019

 ---------------------------------------------------------------
 #n M062X/6-311++G(d,p) TD(NStates=1) EmpiricalDispersion=GD3 SP
 ---------------------------------------------------------------

 ----
 SP_8
 ----
 Symbolic Z-matrix:
 Charge =  1 Multiplicity = 1

                         Standard orientation:
 ---------------------------------------------------------------------
 Center     Atomic      Atomic             Coordinates (Angstroms)
 Number     Number       Type             X           Y           Z
 ---------------------------------------------------------------------
      1          6           0       -2.263000   -1.586430    0.000000
      2          6           0       -2.048298   -2.984369    0.000000
      3          6           0       -0.743975   -3.622590    0.000000
      4          6           0        0.220251   -2.971946    0.000000
      5          6           0        2.215225    1.533283    0.000000
      6          6           0        2.110567    3.175448    0.000000
      7          6           0        0.940812    3.789977    0.000000
      8          6           0       -0.119832    2.914912    0.000000
      9          6           0       -1.288335    0.676252    0.000000
     10          6           0        1.191803   -0.826384    0.000000
     11          6           0       -1.300636   -0.882092    0.000000
     12          6           0        0.085275   -1.477832    0.000000
     13          6           0        0.000000    1.296686    0.000000
     14          6           0        1.183839    0.740747    0.000000
     15          1           0       -3.292098   -1.230442    0.000000
     16          1           0       -2.923589   -3.624051    0.000000
     17          1           0       -0.735182   -4.704724    0.000000
     18          1           0        1.248799   -3.327469    0.000000
     19          1           0        2.164362   -1.298804    0.000000
     20          1           0        3.247480    1.185728    0.000000
     21          1           0        3.070653    3.692018    0.000000
     22          1           0        0.825658    4.859666    0.000000
     23          1           0       -1.152798    3.262589    0.000000
     24          1           0       -1.777730    1.265759    0.859585
     25          1           0       -1.777730    1.265759   -0.859585
 ---------------------------------------------------------------------

 SCF Done:  E(RM062X) =  -539.505305286     A.U. after   16 cycles

 Excitation energies and oscillator strengths:

 Excited State   1:      Singlet-A'     1.3988 eV  886.37 nm  f=0.0334  <S**2>=0.000
      47 -> 48         0.70302
 This state for optimization and/or second-order correction.
 Total Energy, E(TD-HF/TD-DFT) =  -539.453900650
 Copying the excited state density for this state as the 1-particle RhoCI density.

 The electronic state is 1-A'.
 Alpha  occ. eigenvalues --  -10.77303 -10.75245 -10.75008 -10.73072 -10.71797
 Alpha  occ. eigenvalues --  -10.71756 -10.71032 -10.70765 -10.70049 -10.69243
 Alpha  occ. eigenvalues --  -10.69100 -10.68544 -10.68478 -10.66783  -1.19105
 Alpha  occ. eigenvalues --   -1.12737  -1.10052  -1.06674  -1.02216  -1.01164
 Alpha  occ. eigenvalues --   -0.95181  -0.89241  -0.86470  -0.85156  -0.83638
 Alpha  occ. eigenvalues --   -0.77613  -0.76864  -0.74499  -0.71993  -0.69654
 Alpha  occ. eigenvalues --   -0.69015  -0.67807  -0.66627  -0.65540  -0.63834
 Alpha  occ. eigenvalues --   -0.62953  -0.62780  -0.60704  -0.57632  -0.56472
 Alpha  occ. eigenvalues --   -0.55584  -0.54807  -0.53523  -0.52391  -0.50140
 Alpha  occ. eigenvalues --   -0.46920  -0.38241
 Alpha virt. eigenvalues --   -0.26777  -0.15166  -0.13250  -0.11499  -0.11312
 Alpha virt. eigenvalues --   -0.10294  -0.09731  -0.07771  -0.07660  -0.07545
 Alpha virt. eigenvalues --   -0.07347  -0.06327  -0.05743  -0.05476  -0.05435

 Mulliken charges:
               1
     1  C   -0.054257
     2  C   -0.391917
     3  C   -0.364617
     4  C   -0.048856
     5  C   -0.182430
     6  C   -0.433587
     7  C   -0.414180
     8  C    0.252371
     9  C   -0.485349
    10  C   -0.119464
    11  C   -0.684249
    12  C    0.675200
    13  C   -0.020542
    14  C    0.633864
    15  H    0.244644
    16  H    0.280111
    17  H    0.260828
    18  H    0.230688
    19  H    0.175196
    20  H    0.217887
    21  H    0.234639
    22  H    0.237754
    23  H    0.231856
    24  H    0.262206
    25  H    0.262206
 Sum of Mulliken charges =   1.00000

 Dipole moment (field-independent basis, Debye):
    X=             -2.5375    Y=             -4.3693    Z=              0.0000  Tot=              5.0526
 Quadrupole moment (field-independent basis, Debye-Ang):
   XX=            -52.9342   YY=            -31.6448   ZZ=            -83.7596
   XY=             10.0395   XZ=             -0.0000   YZ=              0.0000

 Normal termination of Gaussian 16 at Tue Aug  2 13:11:56 2022.
