 Gaussian 16, Revision C.01,
 Gaussian 16:  ES64L-G16RevC.01  3-Jul-2019

 ---------------------------------------------------------------
 #n M062X/6-311++G(d,p) TD(NStates=1) EmpiricalDispersion=GD3 SP
 ---------------------------------------------------------------

 -----
 SP_12
 -----
 Symbolic Z-matrix:
 Charge =  1 Multiplicity = 1

                         Standard orientation:
 ---------------------------------------------------------------------
 Center     Atomic      Atomic             Coordinates (Angstroms)
 Number     Number       Type             X           Y           Z
 ---------------------------------------------------------------------
      1          6           0       -0.011114   -2.608321    0.000000
      2          6           0        1.222048   -3.300478    0.000000
      3          6           0        2.572329   -2.683263    0.000000
      4          6           0        2.712311   -1.612316    0.000000
      5          6           0        0.015670    2.518831    0.000000
      6          6           0       -1.409811    3.524698    0.000000
      7          6           0       -2.618535    3.030216    0.000000
      8          6           0       -2.584997    1.662064    0.000000
      9          6           0       -1.296320   -0.661624    0.000000
     10          6           0        1.400764    0.432950    0.000000
     11          6           0        0.048459   -1.530893    0.000000
     12          6           0        1.392305   -0.770730    0.000000
     13          6           0       -1.133081    0.701664    0.000000
     14          6           0        0.000000    1.282999    0.000000
     15          1           0       -0.912789   -3.212837    0.000000
     16          1           0        1.157590   -4.386101    0.000000
     17          1           0        3.402907   -3.410372    0.000000
     18          1           0        3.613289   -1.007984    0.000000
     19          1           0        2.262218    1.102672    0.000000
     20          1           0        0.912245    3.130768    0.000000
     21          1           0       -1.153418    4.603757    0.000000
     22          1           0       -3.516287    3.623506    0.000000
     23          1           0       -3.482078    1.049614    0.000000
     24          1           0       -2.071923   -0.703903    0.859585
     25          1           0       -2.071923   -0.703903   -0.859585
 ---------------------------------------------------------------------

 SCF Done:  E(RM062X) =  -539.184647527     A.U. after   17 cycles

 Excitation energies and oscillator strengths:

 Excited State   1:      Singlet-A'     0.9552 eV 1297.96 nm  f=0.0640  <S**2>=0.000
      47 -> 48         0.71374
      47 <- 48        -0.13041
 This state for optimization and/or second-order correction.
 Total Energy, E(TD-HF/TD-DFT) =  -539.149543638
 Copying the excited state density for this state as the 1-particle RhoCI density.

 The electronic state is 1-A'.
 Alpha  occ. eigenvalues --  -10.78975 -10.74106 -10.72338 -10.71993 -10.71411
 Alpha  occ. eigenvalues --  -10.71269 -10.70403 -10.69890 -10.69875 -10.69793
 Alpha  occ. eigenvalues --  -10.68596 -10.67665 -10.67419 -10.66453  -1.20960
 Alpha  occ. eigenvalues --   -1.13591  -1.12495  -1.06946  -1.03400  -1.01629
 Alpha  occ. eigenvalues --   -0.96243  -0.87959  -0.86121  -0.84024  -0.83699
 Alpha  occ. eigenvalues --   -0.77685  -0.76395  -0.74672  -0.73668  -0.70034
 Alpha  occ. eigenvalues --   -0.68941  -0.68920  -0.66627  -0.64411  -0.63955
 Alpha  occ. eigenvalues --   -0.63462  -0.62673  -0.59258  -0.58672  -0.56413
 Alpha  occ. eigenvalues --   -0.55663  -0.55304  -0.52561  -0.52090  -0.47974
 Alpha  occ. eigenvalues --   -0.47740  -0.36020
 Alpha virt. eigenvalues --   -0.27427  -0.15675  -0.11651  -0.11400  -0.10383
 Alpha virt. eigenvalues --   -0.09854  -0.09582  -0.07840  -0.07753  -0.07498
 Alpha virt. eigenvalues --   -0.07331  -0.06041  -0.05994  -0.05467  -0.05460

 Mulliken charges:
               1
     1  C    0.004901
     2  C   -0.429527
     3  C   -0.400147
     4  C    0.041730
     5  C   -0.079751
     6  C   -0.382840
     7  C   -0.469232
     8  C    0.096019
     9  C   -0.393990
    10  C   -0.087448
    11  C   -0.716637
    12  C    0.525248
    13  C    0.014366
    14  C    0.655500
    15  H    0.243465
    16  H    0.284306
    17  H    0.260985
    18  H    0.238709
    19  H    0.156190
    20  H    0.201165
    21  H    0.242184
    22  H    0.235662
    23  H    0.230354
    24  H    0.264395
    25  H    0.264395
 Sum of Mulliken charges =   1.00000

 Dipole moment (field-independent basis, Debye):
    X=              2.1606    Y=             -5.3120    Z=              0.0000  Tot=              5.7345
 Quadrupole moment (field-independent basis, Debye-Ang):
   XX=            -46.7492   YY=            -35.9710   ZZ=            -83.1357
   XY=            -14.8033   XZ=             -0.0000   YZ=             -0.0000

 Normal termination of Gaussian 16 at Tue Aug  2 13:24:32 2022.
