 Gaussian 16, Revision C.01,
 Gaussian 16:  ES64L-G16RevC.01  3-Jul-2019

 ---------------------------------------------------------------
 #n M062X/6-311++G(d,p) TD(NStates=1) EmpiricalDispersion=GD3 SP
 ---------------------------------------------------------------

 -----
 SP_12
 -----
 Symbolic Z-matrix:
 Charge =  1 Multiplicity = 1

                         Standard orientation:
 ---------------------------------------------------------------------
 Center     Atomic      Atomic             Coordinates (Angstroms)
 Number     Number       Type             X           Y           Z
 ---------------------------------------------------------------------
      1          6           0       -2.215836   -1.499853    0.000000
      2          6           0       -2.014149   -2.906462    0.000000
      3          6           0       -0.713663   -3.622485    0.000000
      4          6           0        0.200110   -3.089674    0.000000
      5          6           0        2.135553    1.444582    0.000000
      6          6           0        2.093433    3.200344    0.000000
      7          6           0        0.981574    3.866068    0.000000
      8          6           0       -0.081620    3.005525    0.000000
      9          6           0       -1.273817    0.705865    0.000000
     10          6           0        1.141163   -0.929418    0.000000
     11          6           0       -1.319159   -0.894882    0.000000
     12          6           0        0.093837   -1.537021    0.000000
     13          6           0        0.000000    1.273216    0.000000
     14          6           0        1.131673    0.709935    0.000000
     15          1           0       -3.249319   -1.151277    0.000000
     16          1           0       -2.913116   -3.515488    0.000000
     17          1           0       -0.798002   -4.712738    0.000000
     18          1           0        1.233046   -3.437781    0.000000
     19          1           0        2.138715   -1.348849    0.000000
     20          1           0        3.172251    1.104417    0.000000
     21          1           0        3.105078    3.638876    0.000000
     22          1           0        0.905054    4.937186    0.000000
     23          1           0       -1.119028    3.345816    0.000000
     24          1           0       -1.714637    1.392701    0.859585
     25          1           0       -1.714637    1.392701   -0.859585
 ---------------------------------------------------------------------

 SCF Done:  E(RM062X) =  -539.152907147     A.U. after   17 cycles

 Excitation energies and oscillator strengths:

 Excited State   1:      Singlet-A'     1.0342 eV 1198.85 nm  f=0.0807  <S**2>=0.000
      47 -> 48         0.71516
      47 <- 48        -0.14252
 This state for optimization and/or second-order correction.
 Total Energy, E(TD-HF/TD-DFT) =  -539.114901193
 Copying the excited state density for this state as the 1-particle RhoCI density.

 The electronic state is 1-A'.
 Alpha  occ. eigenvalues --  -10.78758 -10.74386 -10.72229 -10.72123 -10.71787
 Alpha  occ. eigenvalues --  -10.70766 -10.70473 -10.70168 -10.69862 -10.69139
 Alpha  occ. eigenvalues --  -10.68846 -10.68070 -10.67706 -10.66507  -1.20835
 Alpha  occ. eigenvalues --   -1.13543  -1.12658  -1.06880  -1.03330  -1.01616
 Alpha  occ. eigenvalues --   -0.96019  -0.87981  -0.86076  -0.84437  -0.83512
 Alpha  occ. eigenvalues --   -0.77547  -0.76502  -0.74581  -0.73576  -0.69866
 Alpha  occ. eigenvalues --   -0.69321  -0.68561  -0.66746  -0.64524  -0.63621
 Alpha  occ. eigenvalues --   -0.63415  -0.62928  -0.59281  -0.58881  -0.56520
 Alpha  occ. eigenvalues --   -0.55344  -0.54892  -0.52622  -0.52012  -0.48216
 Alpha  occ. eigenvalues --   -0.47602  -0.36001
 Alpha virt. eigenvalues --   -0.27300  -0.16042  -0.11669  -0.11563  -0.10376
 Alpha virt. eigenvalues --   -0.09869  -0.09270  -0.07854  -0.07718  -0.07432
 Alpha virt. eigenvalues --   -0.07322  -0.06044  -0.05936  -0.05458  -0.05292

 Mulliken charges:
               1
     1  C   -0.048628
     2  C   -0.445301
     3  C   -0.356587
     4  C   -0.051090
     5  C   -0.167617
     6  C   -0.361804
     7  C   -0.481137
     8  C    0.255326
     9  C   -0.434319
    10  C   -0.132615
    11  C   -0.737612
    12  C    0.568156
    13  C    0.157761
    14  C    0.607417
    15  H    0.240915
    16  H    0.280328
    17  H    0.260457
    18  H    0.233040
    19  H    0.155456
    20  H    0.212391
    21  H    0.239247
    22  H    0.236930
    23  H    0.229768
    24  H    0.269759
    25  H    0.269759
 Sum of Mulliken charges =   1.00000

 Dipole moment (field-independent basis, Debye):
    X=             -3.1104    Y=             -4.3870    Z=             -0.0000  Tot=              5.3778
 Quadrupole moment (field-independent basis, Debye-Ang):
   XX=            -53.2284   YY=            -29.4426   ZZ=            -83.1528
   XY=             10.5691   XZ=             -0.0000   YZ=              0.0000

 Normal termination of Gaussian 16 at Tue Aug  2 13:26:50 2022.
