 Gaussian 16, Revision C.01,
 Gaussian 16:  ES64L-G16RevC.01  3-Jul-2019

 ---------------------------------------------------------------
 #n M062X/6-311++G(d,p) TD(NStates=1) EmpiricalDispersion=GD3 SP
 ---------------------------------------------------------------

 ----
 SP_8
 ----
 Symbolic Z-matrix:
 Charge =  1 Multiplicity = 1

                         Standard orientation:
 ---------------------------------------------------------------------
 Center     Atomic      Atomic             Coordinates (Angstroms)
 Number     Number       Type             X           Y           Z
 ---------------------------------------------------------------------
      1          6           0        0.042163   -2.696085    0.000000
      2          6           0        1.278296   -3.368645    0.000000
      3          6           0        2.564740   -2.699543    0.000000
      4          6           0        2.632199   -1.519523    0.000000
      5          6           0       -0.020748    2.634670    0.000000
      6          6           0       -1.391548    3.520178    0.000000
      7          6           0       -2.589318    2.944663    0.000000
      8          6           0       -2.537637    1.570047    0.000000
      9          6           0       -1.277717   -0.694711    0.000000
     10          6           0        1.342706    0.537644    0.000000
     11          6           0        0.053174   -1.507797    0.000000
     12          6           0        1.341085   -0.739088    0.000000
     13          6           0       -1.154697    0.710455    0.000000
     14          6           0        0.000000    1.343048    0.000000
     15          1           0       -0.861407   -3.296075    0.000000
     16          1           0        1.256229   -4.452641    0.000000
     17          1           0        3.443972   -3.342492    0.000000
     18          1           0        3.535074   -0.919724    0.000000
     19          1           0        2.230882    1.159412    0.000000
     20          1           0        0.877647    3.242029    0.000000
     21          1           0       -1.232355    4.601935    0.000000
     22          1           0       -3.510071    3.502372    0.000000
     23          1           0       -3.436533    0.962170    0.000000
     24          1           0       -1.999815   -0.834427    0.859585
     25          1           0       -1.999815   -0.834427   -0.859585
 ---------------------------------------------------------------------

 SCF Done:  E(RM062X) =  -539.525030280     A.U. after   16 cycles

 Excitation energies and oscillator strengths:

 Excited State   1:      Singlet-A'     1.3915 eV  891.00 nm  f=0.0256  <S**2>=0.000
      47 -> 48         0.70346
 This state for optimization and/or second-order correction.
 Total Energy, E(TD-HF/TD-DFT) =  -539.473892890
 Copying the excited state density for this state as the 1-particle RhoCI density.

 The electronic state is 1-A'.
 Alpha  occ. eigenvalues --  -10.77224 -10.74988 -10.74873 -10.73201 -10.72417
 Alpha  occ. eigenvalues --  -10.71149 -10.70621 -10.70582 -10.70512 -10.69188
 Alpha  occ. eigenvalues --  -10.69026 -10.68310 -10.68260 -10.66833  -1.19144
 Alpha  occ. eigenvalues --   -1.12767  -1.09884  -1.06702  -1.02478  -1.01072
 Alpha  occ. eigenvalues --   -0.95285  -0.89295  -0.86543  -0.85114  -0.83494
 Alpha  occ. eigenvalues --   -0.77736  -0.76900  -0.74529  -0.72059  -0.69432
 Alpha  occ. eigenvalues --   -0.69067  -0.68208  -0.66717  -0.65457  -0.63770
 Alpha  occ. eigenvalues --   -0.62959  -0.62864  -0.60707  -0.57682  -0.56985
 Alpha  occ. eigenvalues --   -0.55619  -0.54834  -0.53514  -0.52393  -0.50286
 Alpha  occ. eigenvalues --   -0.46799  -0.38357
 Alpha virt. eigenvalues --   -0.26832  -0.14976  -0.12997  -0.11518  -0.11486
 Alpha virt. eigenvalues --   -0.10268  -0.09709  -0.07785  -0.07659  -0.07577
 Alpha virt. eigenvalues --   -0.07319  -0.06362  -0.05754  -0.05577  -0.05450

 Mulliken charges:
               1
     1  C    0.028765
     2  C   -0.389187
     3  C   -0.413221
     4  C    0.034164
     5  C   -0.040938
     6  C   -0.448343
     7  C   -0.443517
     8  C    0.132563
     9  C   -0.414472
    10  C   -0.044880
    11  C   -0.676499
    12  C    0.631395
    13  C   -0.228584
    14  C    0.647481
    15  H    0.245527
    16  H    0.281784
    17  H    0.261417
    18  H    0.237867
    19  H    0.172703
    20  H    0.207572
    21  H    0.237334
    22  H    0.235541
    23  H    0.231921
    24  H    0.256804
    25  H    0.256804
 Sum of Mulliken charges =   1.00000

 Dipole moment (field-independent basis, Debye):
    X=              2.3508    Y=             -4.5934    Z=              0.0000  Tot=              5.1600
 Quadrupole moment (field-independent basis, Debye-Ang):
   XX=            -47.6118   YY=            -37.0298   ZZ=            -83.6994
   XY=            -13.4826   XZ=             -0.0000   YZ=             -0.0000

 Normal termination of Gaussian 16 at Tue Aug  2 13:09:43 2022.
