 Gaussian 16, Revision C.01,
 Gaussian 16:  ES64L-G16RevC.01  3-Jul-2019

 ---------------------------------------------------------------
 #n M062X/6-311++G(d,p) TD(NStates=1) EmpiricalDispersion=GD3 SP
 ---------------------------------------------------------------

 -----
 SP_10
 -----
 Symbolic Z-matrix:
 Charge =  1 Multiplicity = 1

                         Standard orientation:
 ---------------------------------------------------------------------
 Center     Atomic      Atomic             Coordinates (Angstroms)
 Number     Number       Type             X           Y           Z
 ---------------------------------------------------------------------
      1          6           0       -2.205085   -1.731880    0.000000
      2          6           0       -1.813492   -3.108637    0.000000
      3          6           0       -0.439923   -3.637402    0.000000
      4          6           0        0.394496   -2.937775    0.000000
      5          6           0        2.133474    1.671694    0.000000
      6          6           0        1.868052    3.370468    0.000000
      7          6           0        0.667568    3.869714    0.000000
      8          6           0       -0.273239    2.865805    0.000000
      9          6           0       -1.317784    0.621184    0.000000
     10          6           0        1.212319   -0.825403    0.000000
     11          6           0       -1.355669   -0.965233    0.000000
     12          6           0        0.109954   -1.445131    0.000000
     13          6           0        0.000000    1.215610    0.000000
     14          6           0        1.201773    0.785684    0.000000
     15          1           0       -3.283210   -1.515360    0.000000
     16          1           0       -2.613216   -3.845961    0.000000
     17          1           0       -0.351336   -4.712188    0.000000
     18          1           0        1.472043   -3.153866    0.000000
     19          1           0        2.179813   -1.320159    0.000000
     20          1           0        3.214210    1.463792    0.000000
     21          1           0        2.788452    3.957952    0.000000
     22          1           0        0.430972    4.920405    0.000000
     23          1           0       -1.354691    3.073782    0.000000
     24          1           0       -1.788856    1.319707    0.859585
     25          1           0       -1.788856    1.319707   -0.859585
 ---------------------------------------------------------------------

 SCF Done:  E(RM062X) =  -539.303444521     A.U. after   17 cycles

 Excitation energies and oscillator strengths:

 Excited State   1:      Singlet-A'     1.2244 eV 1012.62 nm  f=0.0713  <S**2>=0.000
      47 -> 48         0.70575
 This state for optimization and/or second-order correction.
 Total Energy, E(TD-HF/TD-DFT) =  -539.258448843
 Copying the excited state density for this state as the 1-particle RhoCI density.

 The electronic state is 1-A'.
 Alpha  occ. eigenvalues --  -10.78285 -10.75442 -10.74004 -10.73020 -10.72559
 Alpha  occ. eigenvalues --  -10.71270 -10.71093 -10.70533 -10.69545 -10.69124
 Alpha  occ. eigenvalues --  -10.68895 -10.68840 -10.68630 -10.66653  -1.19878
 Alpha  occ. eigenvalues --   -1.12860  -1.11690  -1.06661  -1.02498  -1.01079
 Alpha  occ. eigenvalues --   -0.95353  -0.88519  -0.86095  -0.85168  -0.83216
 Alpha  occ. eigenvalues --   -0.77328  -0.76583  -0.74370  -0.72685  -0.70007
 Alpha  occ. eigenvalues --   -0.68869  -0.67610  -0.66571  -0.65100  -0.63491
 Alpha  occ. eigenvalues --   -0.62843  -0.62741  -0.59721  -0.57989  -0.56345
 Alpha  occ. eigenvalues --   -0.54493  -0.54322  -0.53194  -0.52389  -0.48706
 Alpha  occ. eigenvalues --   -0.47627  -0.36923
 Alpha virt. eigenvalues --   -0.26925  -0.16010  -0.13087  -0.11528  -0.10385
 Alpha virt. eigenvalues --   -0.10039  -0.09889  -0.07854  -0.07681  -0.07492
 Alpha virt. eigenvalues --   -0.07395  -0.06168  -0.05835  -0.05430  -0.05228

 Mulliken charges:
               1
     1  C   -0.207012
     2  C   -0.343780
     3  C   -0.342232
     4  C   -0.206890
     5  C   -0.292728
     6  C   -0.328699
     7  C   -0.420198
     8  C    0.325535
     9  C   -0.669131
    10  C   -0.233045
    11  C   -0.633612
    12  C    0.592363
    13  C    0.619836
    14  C    0.480741
    15  H    0.246521
    16  H    0.280751
    17  H    0.260066
    18  H    0.222968
    19  H    0.175443
    20  H    0.225938
    21  H    0.235087
    22  H    0.241122
    23  H    0.227700
    24  H    0.271628
    25  H    0.271628
 Sum of Mulliken charges =   1.00000

 Dipole moment (field-independent basis, Debye):
    X=             -2.6672    Y=             -4.4419    Z=             -0.0000  Tot=              5.1812
 Quadrupole moment (field-independent basis, Debye-Ang):
   XX=            -54.4247   YY=            -28.8127   ZZ=            -83.7260
   XY=              9.0305   XZ=              0.0000   YZ=              0.0000

 Normal termination of Gaussian 16 at Tue Aug  2 13:22:14 2022.
