 Gaussian 16, Revision C.01,
 Gaussian 16:  ES64L-G16RevC.01  3-Jul-2019

 ---------------------------------------------------------------
 #n M062X/6-311++G(d,p) TD(NStates=1) EmpiricalDispersion=GD3 SP
 ---------------------------------------------------------------

 -----
 SP_-4
 -----
 Symbolic Z-matrix:
 Charge =  1 Multiplicity = 1

                         Standard orientation:
 ---------------------------------------------------------------------
 Center     Atomic      Atomic             Coordinates (Angstroms)
 Number     Number       Type             X           Y           Z
 ---------------------------------------------------------------------
      1          6           0        0.156115    2.823959    0.000000
      2          6           0       -0.902046    3.713294    0.000000
      3          6           0       -2.128907    3.150419    0.000000
      4          6           0       -2.294173    1.622582    0.000000
      5          6           0       -0.238091   -2.854152    0.000000
      6          6           0        0.775201   -3.623093    0.000000
      7          6           0        2.082218   -3.062371    0.000000
      8          6           0        2.309486   -1.673157    0.000000
      9          6           0        1.302348    0.646792    0.000000
     10          6           0       -1.240905   -0.723006    0.000000
     11          6           0        0.000000    1.320216    0.000000
     12          6           0       -1.235821    0.772006    0.000000
     13          6           0        1.282563   -0.868779    0.000000
     14          6           0       -0.075561   -1.418855    0.000000
     15          1           0        1.184703    3.179348    0.000000
     16          1           0       -0.748536    4.781111    0.000000
     17          1           0       -3.036559    3.744116    0.000000
     18          1           0       -3.322050    1.267309    0.000000
     19          1           0       -2.189118   -1.249006    0.000000
     20          1           0       -1.262313   -3.217416    0.000000
     21          1           0        0.673657   -4.695906    0.000000
     22          1           0        2.933619   -3.732203    0.000000
     23          1           0        3.334261   -1.309430    0.000000
     24          1           0        1.838883    1.138471    0.859585
     25          1           0        1.838883    1.138471   -0.859585
 ---------------------------------------------------------------------

 SCF Done:  E(RM062X) =  -539.687326947     A.U. after   16 cycles

 Excitation energies and oscillator strengths:

 Excited State   1:      Singlet-A'     2.1013 eV  590.04 nm  f=0.0137  <S**2>=0.000
      47 -> 48         0.70272
 This state for optimization and/or second-order correction.
 Total Energy, E(TD-HF/TD-DFT) =  -539.610105537
 Copying the excited state density for this state as the 1-particle RhoCI density.

 The electronic state is 1-A'.
 Alpha  occ. eigenvalues --  -10.77089 -10.74889 -10.74416 -10.73222 -10.71886
 Alpha  occ. eigenvalues --  -10.71763 -10.71523 -10.71104 -10.71040 -10.70125
 Alpha  occ. eigenvalues --  -10.69961 -10.69189 -10.69067 -10.68303  -1.17202
 Alpha  occ. eigenvalues --   -1.12562  -1.07103  -1.06570  -1.01370  -1.01133
 Alpha  occ. eigenvalues --   -0.94791  -0.90582  -0.86513  -0.85766  -0.83733
 Alpha  occ. eigenvalues --   -0.77640  -0.76700  -0.74152  -0.70615  -0.69728
 Alpha  occ. eigenvalues --   -0.67853  -0.67649  -0.67345  -0.66410  -0.64245
 Alpha  occ. eigenvalues --   -0.61863  -0.61460  -0.61100  -0.58675  -0.58256
 Alpha  occ. eigenvalues --   -0.56295  -0.55723  -0.52748  -0.52380  -0.49940
 Alpha  occ. eigenvalues --   -0.46311  -0.41328
 Alpha virt. eigenvalues --   -0.26245  -0.14915  -0.13921  -0.12574  -0.11294
 Alpha virt. eigenvalues --   -0.10176  -0.09443  -0.07844  -0.07615  -0.07532
 Alpha virt. eigenvalues --   -0.07309  -0.06968  -0.05680  -0.05512  -0.05438

 Mulliken charges:
               1
     1  C    0.226593
     2  C   -0.357583
     3  C   -0.368294
     4  C   -0.013725
     5  C    0.103695
     6  C   -0.365511
     7  C   -0.348294
     8  C   -0.082866
     9  C   -0.552441
    10  C   -0.262481
    11  C    0.172523
    12  C    0.321193
    13  C   -0.685637
    14  C    0.562051
    15  H    0.234471
    16  H    0.246474
    17  H    0.239687
    18  H    0.230761
    19  H    0.194158
    20  H    0.222320
    21  H    0.257068
    22  H    0.269422
    23  H    0.243889
    24  H    0.256263
    25  H    0.256263
 Sum of Mulliken charges =   1.00000

 Dipole moment (field-independent basis, Debye):
    X=              1.2733    Y=             -2.6671    Z=             -0.0000  Tot=              2.9555
 Quadrupole moment (field-independent basis, Debye-Ang):
   XX=            -52.4905   YY=            -34.0144   ZZ=            -84.1371
   XY=             -9.5086   XZ=             -0.0000   YZ=             -0.0000

 Normal termination of Gaussian 16 at Tue Aug  2 12:22:05 2022.
