 Gaussian 16, Revision C.01,
 Gaussian 16:  ES64L-G16RevC.01  3-Jul-2019

 ---------------------------------------------------------------
 #n M062X/6-311++G(d,p) TD(NStates=1) EmpiricalDispersion=GD3 SP
 ---------------------------------------------------------------

 ------
 SP_-12
 ------
 Symbolic Z-matrix:
 Charge =  1 Multiplicity = 1

                         Standard orientation:
 ---------------------------------------------------------------------
 Center     Atomic      Atomic             Coordinates (Angstroms)
 Number     Number       Type             X           Y           Z
 ---------------------------------------------------------------------
      1          6           0        0.295290    2.891874    0.000000
      2          6           0       -0.620279    3.915970    0.000000
      3          6           0       -1.805143    3.419423    0.000000
      4          6           0       -2.084746    1.663911    0.000000
      5          6           0       -0.429130   -2.976622    0.000000
      6          6           0        0.361750   -3.637194    0.000000
      7          6           0        1.749979   -3.101866    0.000000
      8          6           0        2.173848   -1.727840    0.000000
      9          6           0        1.319446    0.620350    0.000000
     10          6           0       -1.201164   -0.866151    0.000000
     11          6           0        0.000000    1.190404    0.000000
     12          6           0       -1.184200    0.782850    0.000000
     13          6           0        1.371546   -0.990478    0.000000
     14          6           0       -0.121991   -1.461847    0.000000
     15          1           0        1.386819    3.066741    0.000000
     16          1           0       -0.373422    4.963151    0.000000
     17          1           0       -2.739264    3.992675    0.000000
     18          1           0       -3.175558    1.489110    0.000000
     19          1           0       -2.177129   -1.342199    0.000000
     20          1           0       -1.516848   -3.159648    0.000000
     21          1           0        0.292582   -4.716003    0.000000
     22          1           0        2.542997   -3.847683    0.000000
     23          1           0        3.262150   -1.544392    0.000000
     24          1           0        1.773216    1.380771    0.859585
     25          1           0        1.773216    1.380771   -0.859585
 ---------------------------------------------------------------------

 SCF Done:  E(RM062X) =  -539.080465002     A.U. after   17 cycles

 Excitation energies and oscillator strengths:

 Excited State   1:      Singlet-A'     1.1522 eV 1076.07 nm  f=0.1063  <S**2>=0.000
      47 -> 48         0.71568
      47 <- 48        -0.15337
 This state for optimization and/or second-order correction.
 Total Energy, E(TD-HF/TD-DFT) =  -539.038122720
 Copying the excited state density for this state as the 1-particle RhoCI density.

 The electronic state is 1-A'.
 Alpha  occ. eigenvalues --  -10.78525 -10.74892 -10.73510 -10.72646 -10.71763
 Alpha  occ. eigenvalues --  -10.71473 -10.70717 -10.70223 -10.69566 -10.69353
 Alpha  occ. eigenvalues --  -10.68877 -10.68234 -10.68199 -10.66806  -1.20511
 Alpha  occ. eigenvalues --   -1.13387  -1.12779  -1.06812  -1.03329  -1.01082
 Alpha  occ. eigenvalues --   -0.95494  -0.88069  -0.85840  -0.85244  -0.82763
 Alpha  occ. eigenvalues --   -0.77004  -0.76448  -0.74294  -0.73390  -0.70215
 Alpha  occ. eigenvalues --   -0.69024  -0.67968  -0.66864  -0.64903  -0.63011
 Alpha  occ. eigenvalues --   -0.62968  -0.62520  -0.59040  -0.58841  -0.56724
 Alpha  occ. eigenvalues --   -0.54584  -0.53737  -0.52615  -0.51845  -0.48445
 Alpha  occ. eigenvalues --   -0.47430  -0.35977
 Alpha virt. eigenvalues --   -0.27062  -0.16811  -0.12305  -0.11462  -0.10406
 Alpha virt. eigenvalues --   -0.09966  -0.08920  -0.07920  -0.07689  -0.07388
 Alpha virt. eigenvalues --   -0.07371  -0.06076  -0.05937  -0.05486  -0.05065

 Mulliken charges:
               1
     1  C    0.360110
     2  C   -0.463224
     3  C   -0.291619
     4  C   -0.325882
     5  C   -0.237865
     6  C   -0.327335
     7  C   -0.383935
     8  C   -0.182938
     9  C   -0.658833
    10  C   -0.229201
    11  C    0.683534
    12  C    0.496377
    13  C   -0.658357
    14  C    0.565911
    15  H    0.226939
    16  H    0.242226
    17  H    0.237591
    18  H    0.227226
    19  H    0.163527
    20  H    0.222032
    21  H    0.259538
    22  H    0.277227
    23  H    0.244588
    24  H    0.276181
    25  H    0.276181
 Sum of Mulliken charges =   1.00000

 Dipole moment (field-independent basis, Debye):
    X=              2.7008    Y=             -4.0043    Z=             -0.0000  Tot=              4.8300
 Quadrupole moment (field-independent basis, Debye-Ang):
   XX=            -54.8751   YY=            -27.3964   ZZ=            -83.4371
   XY=             -8.8468   XZ=              0.0000   YZ=              0.0000

 Normal termination of Gaussian 16 at Tue Aug  2 11:48:33 2022.
