 Gaussian 16, Revision C.01,
 Gaussian 16:  ES64L-G16RevC.01  3-Jul-2019

 ---------------------------------------------------------------
 #n M062X/6-311++G(d,p) TD(NStates=1) EmpiricalDispersion=GD3 SP
 ---------------------------------------------------------------

 ------
 SP_-14
 ------
 Symbolic Z-matrix:
 Charge =  1 Multiplicity = 1

                         Standard orientation:
 ---------------------------------------------------------------------
 Center     Atomic      Atomic             Coordinates (Angstroms)
 Number     Number       Type             X           Y           Z
 ---------------------------------------------------------------------
      1          6           0        0.169461    2.996684    0.000000
      2          6           0       -0.825257    3.932950    0.000000
      3          6           0       -1.947396    3.322894    0.000000
      4          6           0       -2.076393    1.505761    0.000000
      5          6           0       -0.304821   -3.094829    0.000000
      6          6           0        0.526803   -3.632999    0.000000
      7          6           0        1.872363   -2.965385    0.000000
      8          6           0        2.177484   -1.566549    0.000000
      9          6           0        1.289651    0.680081    0.000000
     10          6           0       -1.146562   -0.951928    0.000000
     11          6           0        0.000000    1.218878    0.000000
     12          6           0       -1.133731    0.726895    0.000000
     13          6           0        1.356389   -0.945609    0.000000
     14          6           0       -0.112821   -1.528185    0.000000
     15          1           0        1.238381    3.252769    0.000000
     16          1           0       -0.683778    4.996363    0.000000
     17          1           0       -2.949892    3.790600    0.000000
     18          1           0       -3.144599    1.249776    0.000000
     19          1           0       -2.142245   -1.373093    0.000000
     20          1           0       -1.369559   -3.358889    0.000000
     21          1           0        0.581878   -4.725340    0.000000
     22          1           0        2.733708   -3.628509    0.000000
     23          1           0        3.242786   -1.302040    0.000000
     24          1           0        1.711152    1.453201    0.859585
     25          1           0        1.711152    1.453201   -0.859585
 ---------------------------------------------------------------------

 SCF Done:  E(RM062X) =  -538.851172675     A.U. after   20 cycles

 Excitation energies and oscillator strengths:

 Excited State   1:      Singlet-A'     1.0652 eV 1163.94 nm  f=0.1182  <S**2>=0.000
      47 -> 48         0.73415
      47 <- 48        -0.22493
 This state for optimization and/or second-order correction.
 Total Energy, E(TD-HF/TD-DFT) =  -538.812026853
 Copying the excited state density for this state as the 1-particle RhoCI density.

 The electronic state is 1-A'.
 Alpha  occ. eigenvalues --  -10.78323 -10.73823 -10.73014 -10.71585 -10.71037
 Alpha  occ. eigenvalues --  -10.70794 -10.70688 -10.69709 -10.69545 -10.69137
 Alpha  occ. eigenvalues --  -10.68868 -10.67568 -10.67480 -10.66972  -1.21121
 Alpha  occ. eigenvalues --   -1.14163  -1.13510  -1.07097  -1.04293  -1.01789
 Alpha  occ. eigenvalues --   -0.95687  -0.87809  -0.85908  -0.84944  -0.82475
 Alpha  occ. eigenvalues --   -0.76864  -0.76368  -0.74651  -0.73853  -0.70235
 Alpha  occ. eigenvalues --   -0.69590  -0.68753  -0.67197  -0.64552  -0.63731
 Alpha  occ. eigenvalues --   -0.62808  -0.62263  -0.60255  -0.58312  -0.57052
 Alpha  occ. eigenvalues --   -0.55230  -0.53809  -0.53020  -0.50792  -0.49305
 Alpha  occ. eigenvalues --   -0.46195  -0.35224
 Alpha virt. eigenvalues --   -0.27251  -0.17214  -0.11403  -0.10904  -0.10405
 Alpha virt. eigenvalues --   -0.09952  -0.08296  -0.07947  -0.07735  -0.07329
 Alpha virt. eigenvalues --   -0.07076  -0.06087  -0.05987  -0.05639  -0.05278

 Mulliken charges:
               1
     1  C    0.336189
     2  C   -0.512279
     3  C   -0.291129
     4  C   -0.262055
     5  C   -0.129721
     6  C   -0.328003
     7  C   -0.486390
     8  C   -0.071411
     9  C   -0.490225
    10  C   -0.169635
    11  C    0.401503
    12  C    0.599775
    13  C   -0.768582
    14  C    0.543248
    15  H    0.229196
    16  H    0.240925
    17  H    0.242979
    18  H    0.220654
    19  H    0.146227
    20  H    0.226741
    21  H    0.258589
    22  H    0.271895
    23  H    0.237839
    24  H    0.276835
    25  H    0.276835
 Sum of Mulliken charges =   1.00000

 Dipole moment (field-independent basis, Debye):
    X=              2.7481    Y=             -3.3779    Z=              0.0000  Tot=              4.3545
 Quadrupole moment (field-independent basis, Debye-Ang):
   XX=            -54.2043   YY=            -27.8108   ZZ=            -82.8542
   XY=             -9.7439   XZ=              0.0000   YZ=              0.0000

 Normal termination of Gaussian 16 at Tue Aug  2 11:42:38 2022.
