 Gaussian 16, Revision C.01,
 Gaussian 16:  ES64L-G16RevC.01  3-Jul-2019

 ---------------------------------------------------------------
 #n M062X/6-311++G(d,p) TD(NStates=1) EmpiricalDispersion=GD3 SP
 ---------------------------------------------------------------

 -----
 SP_12
 -----
 Symbolic Z-matrix:
 Charge =  1 Multiplicity = 1

                         Standard orientation:
 ---------------------------------------------------------------------
 Center     Atomic      Atomic             Coordinates (Angstroms)
 Number     Number       Type             X           Y           Z
 ---------------------------------------------------------------------
      1          6           0       -0.064451   -2.573868    0.000000
      2          6           0        1.132087   -3.323652    0.000000
      3          6           0        2.506972   -2.761447    0.000000
      4          6           0        2.701724   -1.686591    0.000000
      5          6           0        0.069349    2.488233    0.000000
      6          6           0       -1.310140    3.548096    0.000000
      7          6           0       -2.544187    3.103407    0.000000
      8          6           0       -2.577908    1.733483    0.000000
      9          6           0       -1.307433   -0.638487    0.000000
     10          6           0        1.404519    0.411234    0.000000
     11          6           0        0.044180   -1.500752    0.000000
     12          6           0        1.411284   -0.791190    0.000000
     13          6           0       -1.159291    0.718016    0.000000
     14          6           0        0.000000    1.257497    0.000000
     15          1           0       -0.993273   -3.132915    0.000000
     16          1           0        1.014875   -4.406772    0.000000
     17          1           0        3.310579   -3.526664    0.000000
     18          1           0        3.629844   -1.127712    0.000000
     19          1           0        2.257116    1.104782    0.000000
     20          1           0        0.993243    3.054816    0.000000
     21          1           0       -1.007418    4.619102    0.000000
     22          1           0       -3.413733    3.741027    0.000000
     23          1           0       -3.502320    1.166398    0.000000
     24          1           0       -2.064565   -0.697967    0.859585
     25          1           0       -2.064565   -0.697967   -0.859585
 ---------------------------------------------------------------------

 SCF Done:  E(RM062X) =  -539.195731873     A.U. after   17 cycles

 Excitation energies and oscillator strengths:

 Excited State   1:      Singlet-A'     0.9165 eV 1352.86 nm  f=0.0558  <S**2>=0.000
      47 -> 48         0.71276
      47 <- 48        -0.12262
 This state for optimization and/or second-order correction.
 Total Energy, E(TD-HF/TD-DFT) =  -539.162052699
 Copying the excited state density for this state as the 1-particle RhoCI density.

 The electronic state is 1-A'.
 Alpha  occ. eigenvalues --  -10.79101 -10.73989 -10.72499 -10.72159 -10.71728
 Alpha  occ. eigenvalues --  -10.71133 -10.70271 -10.70252 -10.69815 -10.69779
 Alpha  occ. eigenvalues --  -10.68500 -10.67512 -10.67293 -10.66474  -1.20996
 Alpha  occ. eigenvalues --   -1.13598  -1.12386  -1.06993  -1.03428  -1.01543
 Alpha  occ. eigenvalues --   -0.96317  -0.87959  -0.86094  -0.84116  -0.83450
 Alpha  occ. eigenvalues --   -0.77678  -0.76305  -0.74685  -0.73696  -0.70130
 Alpha  occ. eigenvalues --   -0.69119  -0.68656  -0.66550  -0.64483  -0.64075
 Alpha  occ. eigenvalues --   -0.63430  -0.62304  -0.59133  -0.58541  -0.56462
 Alpha  occ. eigenvalues --   -0.55766  -0.55335  -0.52508  -0.52113  -0.47831
 Alpha  occ. eigenvalues --   -0.47817  -0.36034
 Alpha virt. eigenvalues --   -0.27481  -0.15541  -0.11699  -0.11334  -0.10391
 Alpha virt. eigenvalues --   -0.09862  -0.09734  -0.07846  -0.07769  -0.07536
 Alpha virt. eigenvalues --   -0.07356  -0.06045  -0.06040  -0.05563  -0.05466

 Mulliken charges:
               1
     1  C    0.038144
     2  C   -0.410024
     3  C   -0.425460
     4  C    0.072315
     5  C   -0.057648
     6  C   -0.387588
     7  C   -0.455946
     8  C   -0.000547
     9  C   -0.404556
    10  C   -0.079714
    11  C   -0.688007
    12  C    0.477941
    13  C   -0.019693
    14  C    0.717199
    15  H    0.245767
    16  H    0.287041
    17  H    0.261603
    18  H    0.241193
    19  H    0.158443
    20  H    0.194905
    21  H    0.244146
    22  H    0.235611
    23  H    0.231032
    24  H    0.261922
    25  H    0.261922
 Sum of Mulliken charges =   1.00000

 Dipole moment (field-independent basis, Debye):
    X=              2.1929    Y=             -5.4871    Z=              0.0000  Tot=              5.9090
 Quadrupole moment (field-independent basis, Debye-Ang):
   XX=            -47.2631   YY=            -35.4078   ZZ=            -83.1810
   XY=            -14.5640   XZ=              0.0000   YZ=             -0.0000

 Normal termination of Gaussian 16 at Tue Aug  2 13:23:23 2022.
