 Gaussian 16, Revision C.01,
 Gaussian 16:  ES64L-G16RevC.01  3-Jul-2019

 ---------------------------------------------------------------
 #n M062X/6-311++G(d,p) TD(NStates=1) EmpiricalDispersion=GD3 SP
 ---------------------------------------------------------------

 -----
 SP_14
 -----
 Symbolic Z-matrix:
 Charge =  1 Multiplicity = 1

                         Standard orientation:
 ---------------------------------------------------------------------
 Center     Atomic      Atomic             Coordinates (Angstroms)
 Number     Number       Type             X           Y           Z
 ---------------------------------------------------------------------
      1          6           0       -2.142142   -1.724381    0.000000
      2          6           0       -1.685327   -3.094887    0.000000
      3          6           0       -0.281832   -3.635807    0.000000
      4          6           0        0.466219   -3.014822    0.000000
      5          6           0        2.035662    1.656243    0.000000
      6          6           0        1.739625    3.468237    0.000000
      7          6           0        0.570035    3.961929    0.000000
      8          6           0       -0.319437    2.917653    0.000000
      9          6           0       -1.321574    0.618900    0.000000
     10          6           0        1.191567   -0.906665    0.000000
     11          6           0       -1.386511   -1.016909    0.000000
     12          6           0        0.135166   -1.478408    0.000000
     13          6           0        0.000000    1.165364    0.000000
     14          6           0        1.166465    0.780300    0.000000
     15          1           0       -3.240073   -1.574756    0.000000
     16          1           0       -2.471173   -3.849532    0.000000
     17          1           0       -0.231435   -4.719206    0.000000
     18          1           0        1.563561   -3.164033    0.000000
     19          1           0        2.175929   -1.363387    0.000000
     20          1           0        3.135998    1.515295    0.000000
     21          1           0        2.687638    4.028131    0.000000
     22          1           0        0.312447    5.005375    0.000000
     23          1           0       -1.420491    3.058660    0.000000
     24          1           0       -1.759950    1.441485    0.859585
     25          1           0       -1.759950    1.441485   -0.859585
 ---------------------------------------------------------------------

 SCF Done:  E(RM062X) =  -538.787225732     A.U. after   20 cycles

 Excitation energies and oscillator strengths:

 Excited State   1:      Singlet-A'     1.1439 eV 1083.87 nm  f=0.1352  <S**2>=0.000
      47 -> 48         0.73213
      47 <- 48        -0.22438
 This state for optimization and/or second-order correction.
 Total Energy, E(TD-HF/TD-DFT) =  -538.745188226
 Copying the excited state density for this state as the 1-particle RhoCI density.

 The electronic state is 1-A'.
 Alpha  occ. eigenvalues --  -10.78124 -10.74163 -10.74008 -10.72139 -10.71432
 Alpha  occ. eigenvalues --  -10.71104 -10.70790 -10.70048 -10.69910 -10.69508
 Alpha  occ. eigenvalues --  -10.68703 -10.67838 -10.67222 -10.66918  -1.20849
 Alpha  occ. eigenvalues --   -1.14061  -1.13571  -1.07124  -1.04342  -1.01177
 Alpha  occ. eigenvalues --   -0.95255  -0.87871  -0.86108  -0.85121  -0.82008
 Alpha  occ. eigenvalues --   -0.76524  -0.76197  -0.74431  -0.73803  -0.70659
 Alpha  occ. eigenvalues --   -0.69180  -0.68401  -0.67327  -0.64672  -0.63326
 Alpha  occ. eigenvalues --   -0.62412  -0.62142  -0.60355  -0.58247  -0.56724
 Alpha  occ. eigenvalues --   -0.54560  -0.53064  -0.52926  -0.50697  -0.49380
 Alpha  occ. eigenvalues --   -0.46080  -0.35222
 Alpha virt. eigenvalues --   -0.27076  -0.17832  -0.11398  -0.11340  -0.10437
 Alpha virt. eigenvalues --   -0.10042  -0.08175  -0.08007  -0.07743  -0.07390
 Alpha virt. eigenvalues --   -0.07118  -0.06090  -0.06036  -0.05766  -0.05330

 Mulliken charges:
               1
     1  C   -0.142227
     2  C   -0.433952
     3  C   -0.309910
     4  C   -0.259610
     5  C   -0.365078
     6  C   -0.250553
     7  C   -0.504804
     8  C    0.383927
     9  C   -0.655618
    10  C   -0.228356
    11  C   -0.688277
    12  C    0.546312
    13  C    0.749884
    14  C    0.513747
    15  H    0.241867
    16  H    0.269391
    17  H    0.258853
    18  H    0.219599
    19  H    0.151188
    20  H    0.230634
    21  H    0.241564
    22  H    0.244705
    23  H    0.226326
    24  H    0.280194
    25  H    0.280194
 Sum of Mulliken charges =   1.00000

 Dipole moment (field-independent basis, Debye):
    X=             -2.4814    Y=             -3.0879    Z=             -0.0000  Tot=              3.9614
 Quadrupole moment (field-independent basis, Debye-Ang):
   XX=            -55.3140   YY=            -26.3379   ZZ=            -83.0944
   XY=              8.4218   XZ=              0.0000   YZ=             -0.0000

 Normal termination of Gaussian 16 at Tue Aug  2 13:38:38 2022.
