 Gaussian 16, Revision C.01,
 Gaussian 16:  ES64L-G16RevC.01  3-Jul-2019

 ---------------------------------------------------------------
 #n M062X/6-311++G(d,p) TD(NStates=1) EmpiricalDispersion=GD3 SP
 ---------------------------------------------------------------

 -----
 SP_14
 -----
 Symbolic Z-matrix:
 Charge =  1 Multiplicity = 1

                         Standard orientation:
 ---------------------------------------------------------------------
 Center     Atomic      Atomic             Coordinates (Angstroms)
 Number     Number       Type             X           Y           Z
 ---------------------------------------------------------------------
      1          6           0       -2.162265   -1.643877    0.000000
      2          6           0       -1.781949   -3.030413    0.000000
      3          6           0       -0.406557   -3.636163    0.000000
      4          6           0        0.384528   -3.056132    0.000000
      5          6           0        2.058374    1.579587    0.000000
      6          6           0        1.847056    3.395947    0.000000
      7          6           0        0.700345    3.949025    0.000000
      8          6           0       -0.243565    2.958259    0.000000
      9          6           0       -1.305527    0.650531    0.000000
     10          6           0        1.168623   -0.930320    0.000000
     11          6           0       -1.372546   -0.979515    0.000000
     12          6           0        0.123684   -1.503068    0.000000
     13          6           0        0.000000    1.191620    0.000000
     14          6           0        1.150879    0.752056    0.000000
     15          1           0       -3.244957   -1.435718    0.000000
     16          1           0       -2.606988   -3.739557    0.000000
     17          1           0       -0.409475   -4.725103    0.000000
     18          1           0        1.466644   -3.263858    0.000000
     19          1           0        2.157427   -1.369558    0.000000
     20          1           0        3.143728    1.380030    0.000000
     21          1           0        2.823572    3.909686    0.000000
     22          1           0        0.501293    5.003825    0.000000
     23          1           0       -1.329636    3.157895    0.000000
     24          1           0       -1.734047    1.448571    0.859585
     25          1           0       -1.734047    1.448571   -0.859585
 ---------------------------------------------------------------------

 SCF Done:  E(RM062X) =  -538.820770382     A.U. after   20 cycles

 Excitation energies and oscillator strengths:

 Excited State   1:      Singlet-A'     1.1052 eV 1121.85 nm  f=0.1269  <S**2>=0.000
      47 -> 48         0.73336
      47 <- 48        -0.22502
 This state for optimization and/or second-order correction.
 Total Energy, E(TD-HF/TD-DFT) =  -538.780156057
 Copying the excited state density for this state as the 1-particle RhoCI density.

 The electronic state is 1-A'.
 Alpha  occ. eigenvalues --  -10.78216 -10.73990 -10.73498 -10.71849 -10.71188
 Alpha  occ. eigenvalues --  -10.70934 -10.70727 -10.69872 -10.69720 -10.69177
 Alpha  occ. eigenvalues --  -10.68903 -10.67654 -10.67229 -10.67083  -1.20994
 Alpha  occ. eigenvalues --   -1.14118  -1.13544  -1.07108  -1.04322  -1.01500
 Alpha  occ. eigenvalues --   -0.95482  -0.87839  -0.85958  -0.85092  -0.82250
 Alpha  occ. eigenvalues --   -0.76684  -0.76325  -0.74558  -0.73817  -0.70458
 Alpha  occ. eigenvalues --   -0.69390  -0.68576  -0.67267  -0.64626  -0.63528
 Alpha  occ. eigenvalues --   -0.62621  -0.62245  -0.60319  -0.58252  -0.56959
 Alpha  occ. eigenvalues --   -0.54912  -0.53396  -0.53046  -0.50746  -0.49356
 Alpha  occ. eigenvalues --   -0.46133  -0.35223
 Alpha virt. eigenvalues --   -0.27167  -0.17511  -0.11367  -0.11137  -0.10416
 Alpha virt. eigenvalues --   -0.09993  -0.08226  -0.07973  -0.07736  -0.07354
 Alpha virt. eigenvalues --   -0.07092  -0.06070  -0.06007  -0.05698  -0.05301

 Mulliken charges:
               1
     1  C   -0.101577
     2  C   -0.464266
     3  C   -0.316725
     4  C   -0.197302
     5  C   -0.319211
     6  C   -0.271608
     7  C   -0.511382
     8  C    0.371651
     9  C   -0.568620
    10  C   -0.201012
    11  C   -0.739800
    12  C    0.547247
    13  C    0.562574
    14  C    0.573647
    15  H    0.239394
    16  H    0.270606
    17  H    0.258805
    18  H    0.223178
    19  H    0.148508
    20  H    0.225838
    21  H    0.242205
    22  H    0.242534
    23  H    0.228143
    24  H    0.278586
    25  H    0.278586
 Sum of Mulliken charges =   1.00000

 Dipole moment (field-independent basis, Debye):
    X=             -2.6139    Y=             -3.2332    Z=              0.0000  Tot=              4.1577
 Quadrupole moment (field-independent basis, Debye-Ang):
   XX=            -54.7559   YY=            -27.0966   ZZ=            -82.9583
   XY=              9.1268   XZ=             -0.0000   YZ=             -0.0000

 Normal termination of Gaussian 16 at Tue Aug  2 13:37:26 2022.
