 Gaussian 16, Revision C.01,
 Gaussian 16:  ES64L-G16RevC.01  3-Jul-2019

 ---------------------------------------------------------------
 #n M062X/6-311++G(d,p) TD(NStates=1) EmpiricalDispersion=GD3 SP
 ---------------------------------------------------------------

 -----
 SP_10
 -----
 Symbolic Z-matrix:
 Charge =  1 Multiplicity = 1

                         Standard orientation:
 ---------------------------------------------------------------------
 Center     Atomic      Atomic             Coordinates (Angstroms)
 Number     Number       Type             X           Y           Z
 ---------------------------------------------------------------------
      1          6           0       -0.063980   -2.601107    0.000000
      2          6           0        1.116151   -3.368749    0.000000
      3          6           0        2.471540   -2.806080    0.000000
      4          6           0        2.658803   -1.673715    0.000000
      5          6           0        0.078117    2.531097    0.000000
      6          6           0       -1.253703    3.555319    0.000000
      7          6           0       -2.495736    3.094138    0.000000
      8          6           0       -2.553146    1.720328    0.000000
      9          6           0       -1.303661   -0.644687    0.000000
     10          6           0        1.378932    0.454827    0.000000
     11          6           0        0.046239   -1.474175    0.000000
     12          6           0        1.396209   -0.783746    0.000000
     13          6           0       -1.183417    0.730389    0.000000
     14          6           0        0.000000    1.274759    0.000000
     15          1           0       -1.006406   -3.135567    0.000000
     16          1           0        0.994602   -4.450240    0.000000
     17          1           0        3.287834   -3.548411    0.000000
     18          1           0        3.600527   -1.139418    0.000000
     19          1           0        2.239229    1.136529    0.000000
     20          1           0        1.015659    3.073122    0.000000
     21          1           0       -0.977196    4.625346    0.000000
     22          1           0       -3.363438    3.735692    0.000000
     23          1           0       -3.491208    1.177804    0.000000
     24          1           0       -2.026843   -0.763223    0.859585
     25          1           0       -2.026843   -0.763223   -0.859585
 ---------------------------------------------------------------------

 SCF Done:  E(RM062X) =  -539.387650870     A.U. after   17 cycles

 Excitation energies and oscillator strengths:

 Excited State   1:      Singlet-A'     1.0792 eV 1148.87 nm  f=0.0327  <S**2>=0.000
      47 -> 48         0.70514
 This state for optimization and/or second-order correction.
 Total Energy, E(TD-HF/TD-DFT) =  -539.347991599
 Copying the excited state density for this state as the 1-particle RhoCI density.

 The electronic state is 1-A'.
 Alpha  occ. eigenvalues --  -10.78454 -10.74436 -10.73934 -10.72987 -10.72650
 Alpha  occ. eigenvalues --  -10.70892 -10.70856 -10.70181 -10.70171 -10.69451
 Alpha  occ. eigenvalues --  -10.68192 -10.68068 -10.67552 -10.66547  -1.20166
 Alpha  occ. eigenvalues --   -1.13049  -1.11209  -1.06823  -1.02976  -1.01101
 Alpha  occ. eigenvalues --   -0.95896  -0.88513  -0.86348  -0.84752  -0.83159
 Alpha  occ. eigenvalues --   -0.77854  -0.76498  -0.74671  -0.72916  -0.69930
 Alpha  occ. eigenvalues --   -0.68781  -0.68575  -0.66488  -0.64526  -0.64085
 Alpha  occ. eigenvalues --   -0.63615  -0.62475  -0.59801  -0.57779  -0.56832
 Alpha  occ. eigenvalues --   -0.55351  -0.54931  -0.53497  -0.52369  -0.49103
 Alpha  occ. eigenvalues --   -0.47109  -0.37115
 Alpha virt. eigenvalues --   -0.27221  -0.15099  -0.12237  -0.11672  -0.10782
 Alpha virt. eigenvalues --   -0.10336  -0.09814  -0.07842  -0.07716  -0.07623
 Alpha virt. eigenvalues --   -0.07343  -0.06167  -0.05884  -0.05657  -0.05451

 Mulliken charges:
               1
     1  C    0.077692
     2  C   -0.372054
     3  C   -0.455619
     4  C    0.074434
     5  C   -0.006787
     6  C   -0.423412
     7  C   -0.449351
     8  C   -0.024804
     9  C   -0.437774
    10  C   -0.070427
    11  C   -0.647563
    12  C    0.502134
    13  C   -0.145054
    14  C    0.751158
    15  H    0.248371
    16  H    0.288117
    17  H    0.263167
    18  H    0.243664
    19  H    0.168377
    20  H    0.194784
    21  H    0.241928
    22  H    0.234102
    23  H    0.232182
    24  H    0.256368
    25  H    0.256368
 Sum of Mulliken charges =   1.00000

 Dipole moment (field-independent basis, Debye):
    X=              2.4203    Y=             -5.3809    Z=              0.0000  Tot=              5.9002
 Quadrupole moment (field-independent basis, Debye-Ang):
   XX=            -47.8932   YY=            -35.6232   ZZ=            -83.5121
   XY=            -13.8466   XZ=             -0.0000   YZ=             -0.0000

 Normal termination of Gaussian 16 at Tue Aug  2 13:15:21 2022.
