 Gaussian 16, Revision C.01,
 Gaussian 16:  ES64L-G16RevC.01  3-Jul-2019

 ---------------------------------------------------------------
 #n M062X/6-311++G(d,p) TD(NStates=1) EmpiricalDispersion=GD3 SP
 ---------------------------------------------------------------

 ----
 SP_6
 ----
 Symbolic Z-matrix:
 Charge =  1 Multiplicity = 1

                         Standard orientation:
 ---------------------------------------------------------------------
 Center     Atomic      Atomic             Coordinates (Angstroms)
 Number     Number       Type             X           Y           Z
 ---------------------------------------------------------------------
      1          6           0       -2.280701   -1.666295    0.000000
      2          6           0       -2.024014   -3.056152    0.000000
      3          6           0       -0.704452   -3.627398    0.000000
      4          6           0        0.263264   -2.895331    0.000000
      5          6           0        2.247534    1.613749    0.000000
      6          6           0        2.076780    3.199437    0.000000
      7          6           0        0.866576    3.760565    0.000000
      8          6           0       -0.170112    2.851057    0.000000
      9          6           0       -1.302144    0.648495    0.000000
     10          6           0        1.223861   -0.764687    0.000000
     11          6           0       -1.301914   -0.888914    0.000000
     12          6           0        0.083289   -1.435847    0.000000
     13          6           0       -0.000000    1.294238    0.000000
     14          6           0        1.219049    0.767557    0.000000
     15          1           0       -3.317841   -1.332405    0.000000
     16          1           0       -2.870846   -3.733221    0.000000
     17          1           0       -0.624817   -4.702410    0.000000
     18          1           0        1.299847   -3.228764    0.000000
     19          1           0        2.180281   -1.274357    0.000000
     20          1           0        3.287696    1.288341    0.000000
     21          1           0        2.997813    3.775707    0.000000
     22          1           0        0.704763    4.826062    0.000000
     23          1           0       -1.210987    3.176574    0.000000
     24          1           0       -1.814001    1.200819    0.859585
     25          1           0       -1.814001    1.200819   -0.859585
 ---------------------------------------------------------------------

 SCF Done:  E(RM062X) =  -539.607482833     A.U. after   16 cycles

 Excitation energies and oscillator strengths:

 Excited State   1:      Singlet-A'     1.7246 eV  718.91 nm  f=0.0209  <S**2>=0.000
      47 -> 48         0.70238
 This state for optimization and/or second-order correction.
 Total Energy, E(TD-HF/TD-DFT) =  -539.544104450
 Copying the excited state density for this state as the 1-particle RhoCI density.

 The electronic state is 1-A'.
 Alpha  occ. eigenvalues --  -10.76236 -10.75980 -10.75303 -10.73278 -10.71871
 Alpha  occ. eigenvalues --  -10.71803 -10.71232 -10.71227 -10.70233 -10.70005
 Alpha  occ. eigenvalues --  -10.69344 -10.69071 -10.68759 -10.67411  -1.18065
 Alpha  occ. eigenvalues --   -1.12626  -1.08417  -1.06645  -1.01747  -1.01167
 Alpha  occ. eigenvalues --   -0.94733  -0.89983  -0.86490  -0.85578  -0.83637
 Alpha  occ. eigenvalues --   -0.77219  -0.77129  -0.74268  -0.71238  -0.69772
 Alpha  occ. eigenvalues --   -0.68416  -0.67533  -0.66879  -0.66170  -0.64087
 Alpha  occ. eigenvalues --   -0.62138  -0.62056  -0.61242  -0.57765  -0.57150
 Alpha  occ. eigenvalues --   -0.55864  -0.55660  -0.52365  -0.51835  -0.51417
 Alpha  occ. eigenvalues --   -0.46570  -0.39664
 Alpha virt. eigenvalues --   -0.26460  -0.15062  -0.13746  -0.12044  -0.11394
 Alpha virt. eigenvalues --   -0.10242  -0.09608  -0.07776  -0.07594  -0.07531
 Alpha virt. eigenvalues --   -0.07355  -0.06639  -0.05707  -0.05481  -0.05463

 Mulliken charges:
               1
     1  C   -0.097604
     2  C   -0.347900
     3  C   -0.369102
     4  C    0.085271
     5  C   -0.087282
     6  C   -0.349872
     7  C   -0.367825
     8  C    0.239367
     9  C   -0.546776
    10  C   -0.270465
    11  C   -0.706478
    12  C    0.525419
    13  C    0.288842
    14  C    0.354365
    15  H    0.244818
    16  H    0.275489
    17  H    0.259005
    18  H    0.226729
    19  H    0.188073
    20  H    0.225406
    21  H    0.237146
    22  H    0.242657
    23  H    0.230681
    24  H    0.260017
    25  H    0.260017
 Sum of Mulliken charges =   1.00000

 Dipole moment (field-independent basis, Debye):
    X=             -1.9211    Y=             -3.6601    Z=              0.0000  Tot=              4.1336
 Quadrupole moment (field-independent basis, Debye-Ang):
   XX=            -52.9769   YY=            -32.6142   ZZ=            -84.0181
   XY=              9.5185   XZ=             -0.0000   YZ=              0.0000

 Normal termination of Gaussian 16 at Tue Aug  2 13:05:14 2022.
