 Gaussian 16, Revision C.01,
 Gaussian 16:  ES64L-G16RevC.01  3-Jul-2019

 ---------------------------------------------------------------
 #n M062X/6-311++G(d,p) TD(NStates=1) EmpiricalDispersion=GD3 SP
 ---------------------------------------------------------------

 ----
 SP_8
 ----
 Symbolic Z-matrix:
 Charge =  1 Multiplicity = 1

                         Standard orientation:
 ---------------------------------------------------------------------
 Center     Atomic      Atomic             Coordinates (Angstroms)
 Number     Number       Type             X           Y           Z
 ---------------------------------------------------------------------
      1          6           0       -2.251611   -1.659915    0.000000
      2          6           0       -1.964936   -3.049870    0.000000
      3          6           0       -0.632285   -3.630934    0.000000
      4          6           0        0.290379   -2.936173    0.000000
      5          6           0        2.200650    1.605033    0.000000
      6          6           0        2.022657    3.248531    0.000000
      7          6           0        0.828812    3.807815    0.000000
      8          6           0       -0.185756    2.878070    0.000000
      9          6           0       -1.302343    0.649754    0.000000
     10          6           0        1.208034   -0.806283    0.000000
     11          6           0       -1.320643   -0.910005    0.000000
     12          6           0        0.091912   -1.452783    0.000000
     13          6           0        0.000000    1.268382    0.000000
     14          6           0        1.202178    0.763327    0.000000
     15          1           0       -3.300760   -1.356468    0.000000
     16          1           0       -2.806872   -3.734476    0.000000
     17          1           0       -0.574089   -4.708633    0.000000
     18          1           0        1.338966   -3.239169    0.000000
     19          1           0        2.172629   -1.299140    0.000000
     20          1           0        3.252736    1.310099    0.000000
     21          1           0        2.957265    3.808046    0.000000
     22          1           0        0.658315    4.870866    0.000000
     23          1           0       -1.238556    3.173106    0.000000
     24          1           0       -1.790962    1.263039    0.859585
     25          1           0       -1.790962    1.263039   -0.859585
 ---------------------------------------------------------------------

 SCF Done:  E(RM062X) =  -539.489797183     A.U. after   16 cycles

 Excitation energies and oscillator strengths:

 Excited State   1:      Singlet-A'     1.4061 eV  881.75 nm  f=0.0375  <S**2>=0.000
      47 -> 48         0.70275
 This state for optimization and/or second-order correction.
 Total Energy, E(TD-HF/TD-DFT) =  -539.438123170
 Copying the excited state density for this state as the 1-particle RhoCI density.

 The electronic state is 1-A'.
 Alpha  occ. eigenvalues --  -10.77351 -10.75446 -10.75124 -10.73059 -10.72140
 Alpha  occ. eigenvalues --  -10.71524 -10.71264 -10.70898 -10.69841 -10.69386
 Alpha  occ. eigenvalues --  -10.69117 -10.68718 -10.68605 -10.66808  -1.19058
 Alpha  occ. eigenvalues --   -1.12707  -1.10102  -1.06643  -1.02074  -1.01170
 Alpha  occ. eigenvalues --   -0.95088  -0.89207  -0.86405  -0.85245  -0.83564
 Alpha  occ. eigenvalues --   -0.77497  -0.76811  -0.74439  -0.71953  -0.69798
 Alpha  occ. eigenvalues --   -0.68870  -0.67586  -0.66581  -0.65565  -0.63824
 Alpha  occ. eigenvalues --   -0.62855  -0.62640  -0.60619  -0.57586  -0.56290
 Alpha  occ. eigenvalues --   -0.55430  -0.54767  -0.53479  -0.52361  -0.50071
 Alpha  occ. eigenvalues --   -0.46970  -0.38184
 Alpha virt. eigenvalues --   -0.26736  -0.15311  -0.13427  -0.11496  -0.11218
 Alpha virt. eigenvalues --   -0.10313  -0.09752  -0.07780  -0.07656  -0.07530
 Alpha virt. eigenvalues --   -0.07374  -0.06327  -0.05751  -0.05431  -0.05427

 Mulliken charges:
               1
     1  C   -0.121742
     2  C   -0.364570
     3  C   -0.350600
     4  C   -0.122468
     5  C   -0.249910
     6  C   -0.406486
     7  C   -0.391470
     8  C    0.276215
     9  C   -0.576188
    10  C   -0.189963
    11  C   -0.669145
    12  C    0.668937
    13  C    0.231857
    14  C    0.615811
    15  H    0.245538
    16  H    0.279914
    17  H    0.260468
    18  H    0.225991
    19  H    0.180381
    20  H    0.222909
    21  H    0.234413
    22  H    0.239610
    23  H    0.231663
    24  H    0.264419
    25  H    0.264419
 Sum of Mulliken charges =   1.00000

 Dipole moment (field-independent basis, Debye):
    X=             -2.4551    Y=             -4.3366    Z=              0.0000  Tot=              4.9833
 Quadrupole moment (field-independent basis, Debye-Ang):
   XX=            -53.4390   YY=            -31.0550   ZZ=            -83.8406
   XY=              9.5862   XZ=             -0.0000   YZ=              0.0000

 Normal termination of Gaussian 16 at Tue Aug  2 13:13:04 2022.
