 Gaussian 16, Revision C.01,
 Gaussian 16:  ES64L-G16RevC.01  3-Jul-2019

 ---------------------------------------------------------------
 #n M062X/6-311++G(d,p) TD(NStates=1) EmpiricalDispersion=GD3 SP
 ---------------------------------------------------------------

 -----
 SP_12
 -----
 Symbolic Z-matrix:
 Charge =  1 Multiplicity = 1

                         Standard orientation:
 ---------------------------------------------------------------------
 Center     Atomic      Atomic             Coordinates (Angstroms)
 Number     Number       Type             X           Y           Z
 ---------------------------------------------------------------------
      1          6           0       -2.206288   -1.572673    0.000000
      2          6           0       -1.931916   -2.971785    0.000000
      3          6           0       -0.600700   -3.630362    0.000000
      4          6           0        0.274527   -3.054245    0.000000
      5          6           0        2.122901    1.514825    0.000000
      6          6           0        2.003916    3.273678    0.000000
      7          6           0        0.866243    3.885321    0.000000
      8          6           0       -0.151133    2.969528    0.000000
      9          6           0       -1.288778    0.679280    0.000000
     10          6           0        1.160318   -0.910175    0.000000
     11          6           0       -1.338478   -0.923424    0.000000
     12          6           0        0.102670   -1.511478    0.000000
     13          6           0        0.000000    1.244689    0.000000
     14          6           0        1.150530    0.731295    0.000000
     15          1           0       -3.259903   -1.277027    0.000000
     16          1           0       -2.798251   -3.626764    0.000000
     17          1           0       -0.635003   -4.718756    0.000000
     18          1           0        1.327583   -3.349436    0.000000
     19          1           0        2.148353   -1.348943    0.000000
     20          1           0        3.179509    1.227672    0.000000
     21          1           0        2.992056    3.756933    0.000000
     22          1           0        0.733950    4.950949    0.000000
     23          1           0       -1.208453    3.256788    0.000000
     24          1           0       -1.731354    1.390865    0.859585
     25          1           0       -1.731354    1.390865   -0.859585
 ---------------------------------------------------------------------

 SCF Done:  E(RM062X) =  -539.132245364     A.U. after   17 cycles

 Excitation energies and oscillator strengths:

 Excited State   1:      Singlet-A'     1.0738 eV 1154.60 nm  f=0.0893  <S**2>=0.000
      47 -> 48         0.71557
      47 <- 48        -0.14704
 This state for optimization and/or second-order correction.
 Total Energy, E(TD-HF/TD-DFT) =  -539.092782874
 Copying the excited state density for this state as the 1-particle RhoCI density.

 The electronic state is 1-A'.
 Alpha  occ. eigenvalues --  -10.78667 -10.74545 -10.72549 -10.72291 -10.71742
 Alpha  occ. eigenvalues --  -10.70980 -10.70334 -10.70135 -10.69949 -10.68999
 Alpha  occ. eigenvalues --  -10.68804 -10.68314 -10.67870 -10.66578  -1.20745
 Alpha  occ. eigenvalues --   -1.13502  -1.12714  -1.06856  -1.03314  -1.01501
 Alpha  occ. eigenvalues --   -0.95869  -0.88005  -0.86008  -0.84725  -0.83290
 Alpha  occ. eigenvalues --   -0.77404  -0.76517  -0.74505  -0.73517  -0.69915
 Alpha  occ. eigenvalues --   -0.69330  -0.68365  -0.66792  -0.64678  -0.63417
 Alpha  occ. eigenvalues --   -0.63268  -0.62902  -0.59190  -0.58956  -0.56610
 Alpha  occ. eigenvalues --   -0.55127  -0.54566  -0.52632  -0.51961  -0.48312
 Alpha  occ. eigenvalues --   -0.47541  -0.35993
 Alpha virt. eigenvalues --   -0.27227  -0.16271  -0.11854  -0.11524  -0.10380
 Alpha virt. eigenvalues --   -0.09892  -0.09132  -0.07871  -0.07705  -0.07407
 Alpha virt. eigenvalues --   -0.07334  -0.06049  -0.05925  -0.05462  -0.05211

 Mulliken charges:
               1
     1  C   -0.080681
     2  C   -0.437162
     3  C   -0.340209
     4  C   -0.115234
     5  C   -0.227041
     6  C   -0.344183
     7  C   -0.479774
     8  C    0.311915
     9  C   -0.488752
    10  C   -0.166349
    11  C   -0.732048
    12  C    0.575949
    13  C    0.289144
    14  C    0.599066
    15  H    0.241111
    16  H    0.279036
    17  H    0.260302
    18  H    0.229526
    19  H    0.157281
    20  H    0.217694
    21  H    0.238391
    22  H    0.238168
    23  H    0.229610
    24  H    0.272120
    25  H    0.272120
 Sum of Mulliken charges =   1.00000

 Dipole moment (field-independent basis, Debye):
    X=             -2.9747    Y=             -4.2612    Z=              0.0000  Tot=              5.1968
 Quadrupole moment (field-independent basis, Debye-Ang):
   XX=            -53.7661   YY=            -28.8116   ZZ=            -83.2145
   XY=             10.0666   XZ=             -0.0000   YZ=              0.0000

 Normal termination of Gaussian 16 at Tue Aug  2 13:27:59 2022.
