 Gaussian 16, Revision C.01,
 Gaussian 16:  ES64L-G16RevC.01  3-Jul-2019

 ---------------------------------------------------------------
 #n M062X/6-311++G(d,p) TD(NStates=1) EmpiricalDispersion=GD3 SP
 ---------------------------------------------------------------

 -----
 SP_-8
 -----
 Symbolic Z-matrix:
 Charge =  1 Multiplicity = 1

                         Standard orientation:
 ---------------------------------------------------------------------
 Center     Atomic      Atomic             Coordinates (Angstroms)
 Number     Number       Type             X           Y           Z
 ---------------------------------------------------------------------
      1          6           0        0.253166    2.839498    0.000000
      2          6           0       -0.712069    3.823229    0.000000
      3          6           0       -1.928503    3.321429    0.000000
      4          6           0       -2.181866    1.679597    0.000000
      5          6           0       -0.362183   -2.898361    0.000000
      6          6           0        0.516431   -3.636531    0.000000
      7          6           0        1.875924   -3.115235    0.000000
      8          6           0        2.235886   -1.736479    0.000000
      9          6           0        1.316572    0.621445    0.000000
     10          6           0       -1.224945   -0.784460    0.000000
     11          6           0        0.000000    1.240972    0.000000
     12          6           0       -1.219198    0.788788    0.000000
     13          6           0        1.338951   -0.941120    0.000000
     14          6           0       -0.098993   -1.428288    0.000000
     15          1           0        1.324036    3.079867    0.000000
     16          1           0       -0.485285    4.877226    0.000000
     17          1           0       -2.835355    3.923961    0.000000
     18          1           0       -3.252020    1.439311    0.000000
     19          1           0       -2.183907   -1.297338    0.000000
     20          1           0       -1.429057   -3.146801    0.000000
     21          1           0        0.407823   -4.707837    0.000000
     22          1           0        2.681921   -3.844390    0.000000
     23          1           0        3.303334   -1.487604    0.000000
     24          1           0        1.806734    1.258349    0.859585
     25          1           0        1.806734    1.258349   -0.859585
 ---------------------------------------------------------------------

 SCF Done:  E(RM062X) =  -539.470109735     A.U. after   16 cycles

 Excitation energies and oscillator strengths:

 Excited State   1:      Singlet-A'     1.4155 eV  875.88 nm  f=0.0418  <S**2>=0.000
      47 -> 48         0.70245
 This state for optimization and/or second-order correction.
 Total Energy, E(TD-HF/TD-DFT) =  -539.418089737
 Copying the excited state density for this state as the 1-particle RhoCI density.

 The electronic state is 1-A'.
 Alpha  occ. eigenvalues --  -10.77406 -10.75655 -10.75308 -10.73081 -10.72571
 Alpha  occ. eigenvalues --  -10.71512 -10.71273 -10.71057 -10.69650 -10.69550
 Alpha  occ. eigenvalues --  -10.69173 -10.68918 -10.68757 -10.66864  -1.18992
 Alpha  occ. eigenvalues --   -1.12669  -1.10126  -1.06600  -1.01952  -1.01132
 Alpha  occ. eigenvalues --   -0.94969  -0.89171  -0.86329  -0.85366  -0.83401
 Alpha  occ. eigenvalues --   -0.77345  -0.76735  -0.74353  -0.71912  -0.69914
 Alpha  occ. eigenvalues --   -0.68696  -0.67357  -0.66541  -0.65564  -0.63777
 Alpha  occ. eigenvalues --   -0.62692  -0.62472  -0.60469  -0.57526  -0.56201
 Alpha  occ. eigenvalues --   -0.55131  -0.54714  -0.53402  -0.52316  -0.50001
 Alpha  occ. eigenvalues --   -0.47011  -0.38127
 Alpha virt. eigenvalues --   -0.26686  -0.15488  -0.13631  -0.11498  -0.11130
 Alpha virt. eigenvalues --   -0.10337  -0.09779  -0.07798  -0.07650  -0.07514
 Alpha virt. eigenvalues --   -0.07408  -0.06338  -0.05768  -0.05432  -0.05382

 Mulliken charges:
               1
     1  C    0.285884
     2  C   -0.378102
     3  C   -0.361980
     4  C   -0.270242
     5  C   -0.167881
     6  C   -0.356743
     7  C   -0.314720
     8  C   -0.215610
     9  C   -0.681190
    10  C   -0.243903
    11  C    0.542353
    12  C    0.485053
    13  C   -0.615136
    14  C    0.630584
    15  H    0.229554
    16  H    0.241899
    17  H    0.234604
    18  H    0.227324
    19  H    0.185740
    20  H    0.221850
    21  H    0.259838
    22  H    0.280061
    23  H    0.247193
    24  H    0.266785
    25  H    0.266785
 Sum of Mulliken charges =   1.00000

 Dipole moment (field-independent basis, Debye):
    X=              2.3657    Y=             -4.2955    Z=             -0.0000  Tot=              4.9038
 Quadrupole moment (field-independent basis, Debye-Ang):
   XX=            -53.9533   YY=            -30.4248   ZZ=            -83.9535
   XY=             -9.0701   XZ=             -0.0000   YZ=              0.0000

 Normal termination of Gaussian 16 at Tue Aug  2 12:04:38 2022.
