 Gaussian 16, Revision C.01,
 Gaussian 16:  ES64L-G16RevC.01  3-Jul-2019

 ---------------------------------------------------------------
 #n M062X/6-311++G(d,p) TD(NStates=1) EmpiricalDispersion=GD3 SP
 ---------------------------------------------------------------

 ------
 SP_-10
 ------
 Symbolic Z-matrix:
 Charge =  1 Multiplicity = 1

                         Standard orientation:
 ---------------------------------------------------------------------
 Center     Atomic      Atomic             Coordinates (Angstroms)
 Number     Number       Type             X           Y           Z
 ---------------------------------------------------------------------
      1          6           0        0.203142    2.904965    0.000000
      2          6           0       -0.788618    3.855007    0.000000
      3          6           0       -1.966416    3.297672    0.000000
      4          6           0       -2.153506    1.596434    0.000000
      5          6           0       -0.319547   -2.976627    0.000000
      6          6           0        0.558630   -3.633626    0.000000
      7          6           0        1.904934   -3.043502    0.000000
      8          6           0        2.222193   -1.654036    0.000000
      9          6           0        1.302961    0.650537    0.000000
     10          6           0       -1.193499   -0.847772    0.000000
     11          6           0        0.000000    1.242654    0.000000
     12          6           0       -1.185199    0.759326    0.000000
     13          6           0        1.338697   -0.932102    0.000000
     14          6           0       -0.101480   -1.469646    0.000000
     15          1           0        1.267475    3.168884    0.000000
     16          1           0       -0.609034    4.915469    0.000000
     17          1           0       -2.914795    3.841148    0.000000
     18          1           0       -3.217124    1.332611    0.000000
     19          1           0       -2.166224   -1.323307    0.000000
     20          1           0       -1.379749   -3.248547    0.000000
     21          1           0        0.521366   -4.714527    0.000000
     22          1           0        2.741623   -3.735958    0.000000
     23          1           0        3.282961   -1.381671    0.000000
     24          1           0        1.769875    1.325099    0.859585
     25          1           0        1.769875    1.325099   -0.859585
 ---------------------------------------------------------------------

 SCF Done:  E(RM062X) =  -539.326705649     A.U. after   17 cycles

 Excitation energies and oscillator strengths:

 Excited State   1:      Singlet-A'     1.1954 eV 1037.14 nm  f=0.0644  <S**2>=0.000
      47 -> 48         0.70578
 This state for optimization and/or second-order correction.
 Total Energy, E(TD-HF/TD-DFT) =  -539.282774030
 Copying the excited state density for this state as the 1-particle RhoCI density.

 The electronic state is 1-A'.
 Alpha  occ. eigenvalues --  -10.78297 -10.75252 -10.73812 -10.72548 -10.72540
 Alpha  occ. eigenvalues --  -10.71050 -10.70876 -10.70814 -10.69431 -10.69370
 Alpha  occ. eigenvalues --  -10.68720 -10.68657 -10.68388 -10.66555  -1.19976
 Alpha  occ. eigenvalues --   -1.12911  -1.11671  -1.06699  -1.02543  -1.01216
 Alpha  occ. eigenvalues --   -0.95513  -0.88505  -0.86203  -0.84954  -0.83457
 Alpha  occ. eigenvalues --   -0.77527  -0.76626  -0.74478  -0.72749  -0.69893
 Alpha  occ. eigenvalues --   -0.69033  -0.67825  -0.66567  -0.65025  -0.63528
 Alpha  occ. eigenvalues --   -0.63142  -0.62957  -0.59892  -0.57988  -0.56304
 Alpha  occ. eigenvalues --   -0.54892  -0.54521  -0.53268  -0.52424  -0.48765
 Alpha  occ. eigenvalues --   -0.47568  -0.36951
 Alpha virt. eigenvalues --   -0.26996  -0.15777  -0.12866  -0.11543  -0.10366
 Alpha virt. eigenvalues --   -0.10152  -0.09855  -0.07830  -0.07689  -0.07513
 Alpha virt. eigenvalues --   -0.07365  -0.06153  -0.05819  -0.05425  -0.05286

 Mulliken charges:
               1
     1  C    0.312537
     2  C   -0.431687
     3  C   -0.365766
     4  C   -0.259518
     5  C   -0.160291
     6  C   -0.339323
     7  C   -0.382357
     8  C   -0.132444
     9  C   -0.572496
    10  C   -0.198252
    11  C    0.370772
    12  C    0.579821
    13  C   -0.684228
    14  C    0.614653
    15  H    0.229760
    16  H    0.238798
    17  H    0.235115
    18  H    0.221617
    19  H    0.171492
    20  H    0.226722
    21  H    0.260798
    22  H    0.281088
    23  H    0.244584
    24  H    0.269302
    25  H    0.269302
 Sum of Mulliken charges =   1.00000

 Dipole moment (field-independent basis, Debye):
    X=              2.7882    Y=             -4.5343    Z=              0.0000  Tot=              5.3229
 Quadrupole moment (field-independent basis, Debye-Ang):
   XX=            -53.8828   YY=            -29.4976   ZZ=            -83.6064
   XY=             -9.6159   XZ=              0.0000   YZ=              0.0000

 Normal termination of Gaussian 16 at Tue Aug  2 11:57:50 2022.
