 Gaussian 16, Revision C.01,
 Gaussian 16:  ES64L-G16RevC.01  3-Jul-2019

 ---------------------------------------------------------------
 #n M062X/6-311++G(d,p) TD(NStates=1) EmpiricalDispersion=GD3 SP
 ---------------------------------------------------------------

 -----
 SP_-8
 -----
 Symbolic Z-matrix:
 Charge =  1 Multiplicity = 1

                         Standard orientation:
 ---------------------------------------------------------------------
 Center     Atomic      Atomic             Coordinates (Angstroms)
 Number     Number       Type             X           Y           Z
 ---------------------------------------------------------------------
      1          6           0        0.055435    2.950190    0.000000
      2          6           0       -1.048190    3.770070    0.000000
      3          6           0       -2.192549    3.102474    0.000000
      4          6           0       -2.225927    1.464377    0.000000
      5          6           0       -0.151842   -3.005869    0.000000
      6          6           0        0.851581   -3.611850    0.000000
      7          6           0        2.126293   -2.919002    0.000000
      8          6           0        2.270406   -1.516041    0.000000
      9          6           0        1.274617    0.701030    0.000000
     10          6           0       -1.176292   -0.844869    0.000000
     11          6           0        0.000000    1.325829    0.000000
     12          6           0       -1.164352    0.720942    0.000000
     13          6           0        1.279135   -0.857270    0.000000
     14          6           0       -0.079071   -1.503414    0.000000
     15          1           0        1.067000    3.348518    0.000000
     16          1           0       -0.987381    4.844170    0.000000
     17          1           0       -3.175973    3.576273    0.000000
     18          1           0       -3.236785    1.066188    0.000000
     19          1           0       -2.159023   -1.296522    0.000000
     20          1           0       -1.158795   -3.411932    0.000000
     21          1           0        0.891144   -4.696621    0.000000
     22          1           0        3.032495   -3.513525    0.000000
     23          1           0        3.277897   -1.109500    0.000000
     24          1           0        1.766981    1.266684    0.859585
     25          1           0        1.766981    1.266684   -0.859585
 ---------------------------------------------------------------------

 SCF Done:  E(RM062X) =  -539.516990048     A.U. after   16 cycles

 Excitation energies and oscillator strengths:

 Excited State   1:      Singlet-A'     1.3938 eV  889.55 nm  f=0.0294  <S**2>=0.000
      47 -> 48         0.70325
 This state for optimization and/or second-order correction.
 Total Energy, E(TD-HF/TD-DFT) =  -539.465769453
 Copying the excited state density for this state as the 1-particle RhoCI density.

 The electronic state is 1-A'.
 Alpha  occ. eigenvalues --  -10.77261 -10.75053 -10.74962 -10.73120 -10.72095
 Alpha  occ. eigenvalues --  -10.71424 -10.70818 -10.70661 -10.70272 -10.69123
 Alpha  occ. eigenvalues --  -10.69121 -10.68400 -10.68369 -10.66791  -1.19134
 Alpha  occ. eigenvalues --   -1.12758  -1.09979  -1.06693  -1.02355  -1.01127
 Alpha  occ. eigenvalues --   -0.95247  -0.89271  -0.86516  -0.85114  -0.83613
 Alpha  occ. eigenvalues --   -0.77693  -0.76894  -0.74530  -0.72029  -0.69508
 Alpha  occ. eigenvalues --   -0.69103  -0.68016  -0.66673  -0.65500  -0.63810
 Alpha  occ. eigenvalues --   -0.62967  -0.62887  -0.60732  -0.57663  -0.56720
 Alpha  occ. eigenvalues --   -0.55629  -0.54829  -0.53534  -0.52401  -0.50210
 Alpha  occ. eigenvalues --   -0.46862  -0.38298
 Alpha virt. eigenvalues --   -0.26808  -0.15054  -0.13103  -0.11507  -0.11405
 Alpha virt. eigenvalues --   -0.10280  -0.09716  -0.07772  -0.07661  -0.07560
 Alpha virt. eigenvalues --   -0.07329  -0.06338  -0.05744  -0.05526  -0.05441

 Mulliken charges:
               1
     1  C    0.201699
     2  C   -0.432475
     3  C   -0.444439
     4  C   -0.105613
     5  C    0.004218
     6  C   -0.386661
     7  C   -0.396751
     8  C   -0.010600
     9  C   -0.433471
    10  C   -0.070232
    11  C   -0.158151
    12  C    0.626412
    13  C   -0.683871
    14  C    0.660508
    15  H    0.231601
    16  H    0.236450
    17  H    0.235638
    18  H    0.212722
    19  H    0.172707
    20  H    0.234658
    21  H    0.261074
    22  H    0.280706
    23  H    0.244639
    24  H    0.259617
    25  H    0.259617
 Sum of Mulliken charges =   1.00000

 Dipole moment (field-independent basis, Debye):
    X=              2.6128    Y=             -4.3936    Z=             -0.0000  Tot=              5.1118
 Quadrupole moment (field-independent basis, Debye-Ang):
   XX=            -52.4442   YY=            -32.1853   ZZ=            -83.7121
   XY=            -10.4403   XZ=             -0.0000   YZ=             -0.0000

 Normal termination of Gaussian 16 at Tue Aug  2 12:08:01 2022.
