 Gaussian 16, Revision C.01,
 Gaussian 16:  ES64L-G16RevC.01  3-Jul-2019

 ---------------------------------------------------------------
 #n M062X/6-311++G(d,p) TD(NStates=1) EmpiricalDispersion=GD3 SP
 ---------------------------------------------------------------

 -----
 SP_10
 -----
 Symbolic Z-matrix:
 Charge =  1 Multiplicity = 1

                         Standard orientation:
 ---------------------------------------------------------------------
 Center     Atomic      Atomic             Coordinates (Angstroms)
 Number     Number       Type             X           Y           Z
 ---------------------------------------------------------------------
      1          6           0       -0.010716   -2.635505    0.000000
      2          6           0        1.206483   -3.346242    0.000000
      3          6           0        2.537516   -2.729207    0.000000
      4          6           0        2.668860   -1.600794    0.000000
      5          6           0        0.024113    2.561860    0.000000
      6          6           0       -1.352826    3.533584    0.000000
      7          6           0       -2.569375    3.022584    0.000000
      8          6           0       -2.559683    1.649798    0.000000
      9          6           0       -1.292498   -0.667462    0.000000
     10          6           0        1.374214    0.475641    0.000000
     11          6           0        0.049436   -1.504114    0.000000
     12          6           0        1.376846   -0.763694    0.000000
     13          6           0       -1.157288    0.713464    0.000000
     14          6           0        0.000000    1.300093    0.000000
     15          1           0       -0.926808   -3.215656    0.000000
     16          1           0        1.137440   -4.430479    0.000000
     17          1           0        3.380222   -3.433361    0.000000
     18          1           0        3.584254   -1.020824    0.000000
     19          1           0        2.243522    1.133388    0.000000
     20          1           0        0.935149    3.149461    0.000000
     21          1           0       -1.122401    4.611138    0.000000
     22          1           0       -3.465393    3.620102    0.000000
     23          1           0       -3.471228    1.061687    0.000000
     24          1           0       -2.032624   -0.767744    0.859585
     25          1           0       -2.032624   -0.767744   -0.859585
 ---------------------------------------------------------------------

 SCF Done:  E(RM062X) =  -539.382376153     A.U. after   17 cycles

 Excitation energies and oscillator strengths:

 Excited State   1:      Singlet-A'     1.0967 eV 1130.47 nm  f=0.0385  <S**2>=0.000
      47 -> 48         0.70531
 This state for optimization and/or second-order correction.
 Total Energy, E(TD-HF/TD-DFT) =  -539.342071405
 Copying the excited state density for this state as the 1-particle RhoCI density.

 The electronic state is 1-A'.
 Alpha  occ. eigenvalues --  -10.78414 -10.74577 -10.73766 -10.72830 -10.72227
 Alpha  occ. eigenvalues --  -10.71114 -10.70528 -10.70324 -10.70261 -10.69360
 Alpha  occ. eigenvalues --  -10.68246 -10.68138 -10.67664 -10.66479  -1.20169
 Alpha  occ. eigenvalues --   -1.13044  -1.11346  -1.06801  -1.02910  -1.01199
 Alpha  occ. eigenvalues --   -0.95877  -0.88503  -0.86377  -0.84679  -0.83413
 Alpha  occ. eigenvalues --   -0.77884  -0.76563  -0.74691  -0.72907  -0.69866
 Alpha  occ. eigenvalues --   -0.68805  -0.68618  -0.66516  -0.64572  -0.63977
 Alpha  occ. eigenvalues --   -0.63555  -0.62917  -0.59940  -0.57843  -0.56621
 Alpha  occ. eigenvalues --   -0.55453  -0.54929  -0.53474  -0.52413  -0.49023
 Alpha  occ. eigenvalues --   -0.47217  -0.37075
 Alpha virt. eigenvalues --   -0.27194  -0.15163  -0.12272  -0.11643  -0.10682
 Alpha virt. eigenvalues --   -0.10337  -0.09806  -0.07818  -0.07719  -0.07599
 Alpha virt. eigenvalues --   -0.07329  -0.06152  -0.05848  -0.05576  -0.05441

 Mulliken charges:
               1
     1  C    0.036177
     2  C   -0.392482
     3  C   -0.423982
     4  C    0.051687
     5  C   -0.033851
     6  C   -0.422831
     7  C   -0.457075
     8  C    0.071243
     9  C   -0.414515
    10  C   -0.068103
    11  C   -0.681494
    12  C    0.557967
    13  C   -0.118676
    14  C    0.671312
    15  H    0.246226
    16  H    0.285831
    17  H    0.262439
    18  H    0.240766
    19  H    0.165840
    20  H    0.200879
    21  H    0.239620
    22  H    0.234187
    23  H    0.231176
    24  H    0.258830
    25  H    0.258830
 Sum of Mulliken charges =   1.00000

 Dipole moment (field-independent basis, Debye):
    X=              2.4253    Y=             -5.2759    Z=             -0.0000  Tot=              5.8067
 Quadrupole moment (field-independent basis, Debye-Ang):
   XX=            -47.4131   YY=            -36.1616   ZZ=            -83.4614
   XY=            -14.0866   XZ=              0.0000   YZ=              0.0000

 Normal termination of Gaussian 16 at Tue Aug  2 13:16:30 2022.
