 Gaussian 16, Revision C.01,
 Gaussian 16:  ES64L-G16RevC.01  3-Jul-2019

 ---------------------------------------------------------------
 #n M062X/6-311++G(d,p) TD(NStates=1) EmpiricalDispersion=GD3 SP
 ---------------------------------------------------------------

 -----
 SP_-6
 -----
 Symbolic Z-matrix:
 Charge =  1 Multiplicity = 1

                         Standard orientation:
 ---------------------------------------------------------------------
 Center     Atomic      Atomic             Coordinates (Angstroms)
 Number     Number       Type             X           Y           Z
 ---------------------------------------------------------------------
      1          6           0        0.106659    2.887513    0.000000
      2          6           0       -0.974676    3.742336    0.000000
      3          6           0       -2.160942    3.126488    0.000000
      4          6           0       -2.261066    1.542676    0.000000
      5          6           0       -0.196038   -2.930333    0.000000
      6          6           0        0.813500   -3.617597    0.000000
      7          6           0        2.105223   -2.990593    0.000000
      8          6           0        2.290952   -1.594018    0.000000
      9          6           0        1.288727    0.674089    0.000000
     10          6           0       -1.209382   -0.784389    0.000000
     11          6           0        0.000000    1.322858    0.000000
     12          6           0       -1.200365    0.745779    0.000000
     13          6           0        1.280810   -0.862848    0.000000
     14          6           0       -0.077923   -1.460928    0.000000
     15          1           0        1.126934    3.264493    0.000000
     16          1           0       -0.867515    4.813895    0.000000
     17          1           0       -3.107324    3.660735    0.000000
     18          1           0       -3.280633    1.165824    0.000000
     19          1           0       -2.174133   -1.272916    0.000000
     20          1           0       -1.211824   -3.315118    0.000000
     21          1           0        0.782455   -4.697367    0.000000
     22          1           0        2.984529   -3.623094    0.000000
     23          1           0        3.307283   -1.208761    0.000000
     24          1           0        1.803678    1.203055    0.859585
     25          1           0        1.803678    1.203055   -0.859585
 ---------------------------------------------------------------------

 SCF Done:  E(RM062X) =  -539.620010987     A.U. after   16 cycles

 Excitation energies and oscillator strengths:

 Excited State   1:      Singlet-A'     1.7343 eV  714.89 nm  f=0.0190  <S**2>=0.000
      47 -> 48         0.70269
 This state for optimization and/or second-order correction.
 Total Energy, E(TD-HF/TD-DFT) =  -539.556276128
 Copying the excited state density for this state as the 1-particle RhoCI density.

 The electronic state is 1-A'.
 Alpha  occ. eigenvalues --  -10.76120 -10.75884 -10.75097 -10.73288 -10.72102
 Alpha  occ. eigenvalues --  -10.71479 -10.71151 -10.70985 -10.70166 -10.70102
 Alpha  occ. eigenvalues --  -10.69191 -10.69106 -10.68650 -10.67422  -1.18093
 Alpha  occ. eigenvalues --   -1.12640  -1.08372  -1.06678  -1.01886  -1.01131
 Alpha  occ. eigenvalues --   -0.94799  -0.90059  -0.86526  -0.85528  -0.83672
 Alpha  occ. eigenvalues --   -0.77280  -0.77243  -0.74305  -0.71270  -0.69621
 Alpha  occ. eigenvalues --   -0.68517  -0.67753  -0.66978  -0.66177  -0.64088
 Alpha  occ. eigenvalues --   -0.62219  -0.62075  -0.61333  -0.57838  -0.57434
 Alpha  occ. eigenvalues --   -0.56008  -0.55600  -0.52403  -0.51797  -0.51492
 Alpha  occ. eigenvalues --   -0.46541  -0.39744
 Alpha virt. eigenvalues --   -0.26484  -0.14961  -0.13606  -0.12086  -0.11387
 Alpha virt. eigenvalues --   -0.10221  -0.09592  -0.07777  -0.07599  -0.07547
 Alpha virt. eigenvalues --   -0.07328  -0.06649  -0.05701  -0.05503  -0.05473

 Mulliken charges:
               1
     1  C    0.231660
     2  C   -0.395674
     3  C   -0.456810
     4  C   -0.172160
     5  C    0.012030
     6  C   -0.381575
     7  C   -0.393309
     8  C   -0.027490
     9  C   -0.457856
    10  C   -0.056696
    11  C   -0.253779
    12  C    0.650455
    13  C   -0.665165
    14  C    0.732093
    15  H    0.232992
    16  H    0.240447
    17  H    0.236010
    18  H    0.218861
    19  H    0.180844
    20  H    0.229274
    21  H    0.259192
    22  H    0.275649
    23  H    0.244413
    24  H    0.258297
    25  H    0.258297
 Sum of Mulliken charges =   1.00000

 Dipole moment (field-independent basis, Debye):
    X=              1.9722    Y=             -3.6561    Z=             -0.0000  Tot=              4.1541
 Quadrupole moment (field-independent basis, Debye-Ang):
   XX=            -52.5070   YY=            -33.1491   ZZ=            -83.9407
   XY=             -9.9146   XZ=              0.0000   YZ=             -0.0000

 Normal termination of Gaussian 16 at Tue Aug  2 12:15:04 2022.
