 Gaussian 16, Revision C.01,
 Gaussian 16:  ES64L-G16RevC.01  3-Jul-2019

 ---------------------------------------------------------------
 #n M062X/6-311++G(d,p) TD(NStates=1) EmpiricalDispersion=GD3 SP
 ---------------------------------------------------------------

 ----
 SP_6
 ----
 Symbolic Z-matrix:
 Charge =  1 Multiplicity = 1

                         Standard orientation:
 ---------------------------------------------------------------------
 Center     Atomic      Atomic             Coordinates (Angstroms)
 Number     Number       Type             X           Y           Z
 ---------------------------------------------------------------------
      1          6           0       -0.062781   -2.655867    0.000000
      2          6           0        1.084407   -3.458230    0.000000
      3          6           0        2.400703   -2.893336    0.000000
      4          6           0        2.574394   -1.645528    0.000000
      5          6           0        0.095941    2.616799    0.000000
      6          6           0       -1.142309    3.567685    0.000000
      7          6           0       -2.400769    3.073193    0.000000
      8          6           0       -2.505069    1.692232    0.000000
      9          6           0       -1.296160   -0.657851    0.000000
     10          6           0        1.329129    0.543500    0.000000
     11          6           0        0.051890   -1.421215    0.000000
     12          6           0        1.366790   -0.767816    0.000000
     13          6           0       -1.231692    0.755468    0.000000
     14          6           0        0.000000    1.309399    0.000000
     15          1           0       -1.031456   -3.141186    0.000000
     16          1           0        0.954708   -4.536478    0.000000
     17          1           0        3.243528   -3.590022    0.000000
     18          1           0        3.542367   -1.160366    0.000000
     19          1           0        2.204211    1.201706    0.000000
     20          1           0        1.059814    3.109735    0.000000
     21          1           0       -0.918709    4.636842    0.000000
     22          1           0       -3.265020    3.722227    0.000000
     23          1           0       -3.469468    1.198804    0.000000
     24          1           0       -1.953409   -0.895932    0.859585
     25          1           0       -1.953409   -0.895932   -0.859585
 ---------------------------------------------------------------------

 SCF Done:  E(RM062X) =  -539.632035382     A.U. after   16 cycles

 Excitation energies and oscillator strengths:

 Excited State   1:      Singlet-A'     1.7865 eV  694.00 nm  f=0.0124  <S**2>=0.000
      47 -> 48         0.70360
 This state for optimization and/or second-order correction.
 Total Energy, E(TD-HF/TD-DFT) =  -539.566382217
 Copying the excited state density for this state as the 1-particle RhoCI density.

 The electronic state is 1-A'.
 Alpha  occ. eigenvalues --  -10.76362 -10.75598 -10.74422 -10.73650 -10.73239
 Alpha  occ. eigenvalues --  -10.71134 -10.70972 -10.70792 -10.70206 -10.69839
 Alpha  occ. eigenvalues --  -10.69645 -10.68805 -10.68466 -10.67779  -1.18077
 Alpha  occ. eigenvalues --   -1.12567  -1.08054  -1.06646  -1.02176  -1.00923
 Alpha  occ. eigenvalues --   -0.94822  -0.90163  -0.86735  -0.85338  -0.83112
 Alpha  occ. eigenvalues --   -0.77667  -0.76956  -0.74144  -0.71432  -0.68848
 Alpha  occ. eigenvalues --   -0.68526  -0.68358  -0.67308  -0.66033  -0.63602
 Alpha  occ. eigenvalues --   -0.62228  -0.61657  -0.61076  -0.58409  -0.57962
 Alpha  occ. eigenvalues --   -0.56207  -0.55243  -0.52431  -0.51826  -0.51365
 Alpha  occ. eigenvalues --   -0.46375  -0.40050
 Alpha virt. eigenvalues --   -0.26512  -0.14874  -0.13472  -0.12110  -0.11402
 Alpha virt. eigenvalues --   -0.10179  -0.09575  -0.07837  -0.07640  -0.07615
 Alpha virt. eigenvalues --   -0.07286  -0.06842  -0.05765  -0.05564  -0.05511

 Mulliken charges:
               1
     1  C    0.156831
     2  C   -0.345198
     3  C   -0.486068
     4  C   -0.005280
     5  C    0.069058
     6  C   -0.449339
     7  C   -0.443088
     8  C   -0.054981
     9  C   -0.457967
    10  C   -0.039489
    11  C   -0.575597
    12  C    0.516337
    13  C   -0.414473
    14  C    0.896781
    15  H    0.248107
    16  H    0.280119
    17  H    0.260673
    18  H    0.242555
    19  H    0.186648
    20  H    0.197229
    21  H    0.244034
    22  H    0.237701
    23  H    0.236502
    24  H    0.249452
    25  H    0.249452
 Sum of Mulliken charges =   1.00000

 Dipole moment (field-independent basis, Debye):
    X=              1.9479    Y=             -3.6687    Z=             -0.0000  Tot=              4.1538
 Quadrupole moment (field-independent basis, Debye-Ang):
   XX=            -49.1223   YY=            -36.4689   ZZ=            -83.9846
   XY=            -12.1661   XZ=             -0.0000   YZ=              0.0000

 Normal termination of Gaussian 16 at Tue Aug  2 12:59:38 2022.
