 Gaussian 16, Revision C.01,
 Gaussian 16:  ES64L-G16RevC.01  3-Jul-2019

 ---------------------------------------------------------------
 #n M062X/6-311++G(d,p) TD(NStates=1) EmpiricalDispersion=GD3 SP
 ---------------------------------------------------------------

 ------
 SP_-12
 ------
 Symbolic Z-matrix:
 Charge =  1 Multiplicity = 1

                         Standard orientation:
 ---------------------------------------------------------------------
 Center     Atomic      Atomic             Coordinates (Angstroms)
 Number     Number       Type             X           Y           Z
 ---------------------------------------------------------------------
      1          6           0        0.013868    3.039884    0.000000
      2          6           0       -1.091984    3.844713    0.000000
      3          6           0       -2.176819    3.127128    0.000000
      4          6           0       -2.144386    1.377241    0.000000
      5          6           0       -0.127668   -3.123134    0.000000
      6          6           0        0.822390   -3.612136    0.000000
      7          6           0        2.090955   -2.841327    0.000000
      8          6           0        2.221429   -1.430231    0.000000
      9          6           0        1.259203    0.730665    0.000000
     10          6           0       -1.122905   -0.946977    0.000000
     11          6           0        0.000000    1.302586    0.000000
     12          6           0       -1.111707    0.691368    0.000000
     13          6           0        1.298278   -0.869511    0.000000
     14          6           0       -0.085539   -1.563031    0.000000
     15          1           0        1.029771    3.431150    0.000000
     16          1           0       -1.070159    4.919098    0.000000
     17          1           0       -3.209832    3.521256    0.000000
     18          1           0       -3.159583    0.986119    0.000000
     19          1           0       -2.132128   -1.346727    0.000000
     20          1           0       -1.138904   -3.522102    0.000000
     21          1           0        0.955595   -4.702523    0.000000
     22          1           0        3.020068   -3.404241    0.000000
     23          1           0        3.233200   -1.030781    0.000000
     24          1           0        1.700639    1.392662    0.859585
     25          1           0        1.700639    1.392662   -0.859585
 ---------------------------------------------------------------------

 SCF Done:  E(RM062X) =  -539.170359857     A.U. after   17 cycles

 Excitation energies and oscillator strengths:

 Excited State   1:      Singlet-A'     0.9946 eV 1246.62 nm  f=0.0723  <S**2>=0.000
      47 -> 48         0.71455
      47 <- 48        -0.13702
 This state for optimization and/or second-order correction.
 Total Energy, E(TD-HF/TD-DFT) =  -539.133810453
 Copying the excited state density for this state as the 1-particle RhoCI density.

 The electronic state is 1-A'.
 Alpha  occ. eigenvalues --  -10.78861 -10.74239 -10.72246 -10.71869 -10.71742
 Alpha  occ. eigenvalues --  -10.70851 -10.70574 -10.70020 -10.69808 -10.69497
 Alpha  occ. eigenvalues --  -10.68712 -10.67852 -10.67556 -10.66465  -1.20907
 Alpha  occ. eigenvalues --   -1.13573  -1.12585  -1.06909  -1.03363  -1.01657
 Alpha  occ. eigenvalues --   -0.96144  -0.87966  -0.86115  -0.84162  -0.83689
 Alpha  occ. eigenvalues --   -0.77641  -0.76461  -0.74637  -0.73627  -0.69933
 Alpha  occ. eigenvalues --   -0.69157  -0.68754  -0.66692  -0.64416  -0.63802
 Alpha  occ. eigenvalues --   -0.63481  -0.62868  -0.59306  -0.58785  -0.56443
 Alpha  occ. eigenvalues --   -0.55523  -0.55146  -0.52599  -0.52056  -0.48103
 Alpha  occ. eigenvalues --   -0.47668  -0.36010
 Alpha virt. eigenvalues --   -0.27366  -0.15843  -0.11605  -0.11515  -0.10377
 Alpha virt. eigenvalues --   -0.09856  -0.09422  -0.07843  -0.07734  -0.07463
 Alpha virt. eigenvalues --   -0.07321  -0.06042  -0.05958  -0.05457  -0.05377

 Mulliken charges:
               1
     1  C    0.182411
     2  C   -0.477732
     3  C   -0.374298
     4  C   -0.116644
     5  C    0.001127
     6  C   -0.376992
     7  C   -0.441943
     8  C   -0.022510
     9  C   -0.403718
    10  C   -0.105614
    11  C    0.070843
    12  C    0.621122
    13  C   -0.732370
    14  C    0.552994
    15  H    0.229913
    16  H    0.236104
    17  H    0.240533
    18  H    0.206899
    19  H    0.155125
    20  H    0.236088
    21  H    0.260633
    22  H    0.282052
    23  H    0.241749
    24  H    0.267113
    25  H    0.267113
 Sum of Mulliken charges =   1.00000

 Dipole moment (field-independent basis, Debye):
    X=              3.2452    Y=             -4.5112    Z=             -0.0000  Tot=              5.5572
 Quadrupole moment (field-independent basis, Debye-Ang):
   XX=            -52.7093   YY=            -30.0106   ZZ=            -83.1262
   XY=            -11.0160   XZ=             -0.0000   YZ=             -0.0000

 Normal termination of Gaussian 16 at Tue Aug  2 11:53:12 2022.
