 Gaussian 16, Revision C.01,
 Gaussian 16:  ES64L-G16RevC.01  3-Jul-2019

 ---------------------------------------------------------------
 #n M062X/6-311++G(d,p) TD(NStates=1) EmpiricalDispersion=GD3 SP
 ---------------------------------------------------------------

 -----
 SP_14
 -----
 Symbolic Z-matrix:
 Charge =  1 Multiplicity = 1

                         Standard orientation:
 ---------------------------------------------------------------------
 Center     Atomic      Atomic             Coordinates (Angstroms)
 Number     Number       Type             X           Y           Z
 ---------------------------------------------------------------------
      1          6           0       -2.194794   -1.421611    0.000000
      2          6           0       -2.035745   -2.834999    0.000000
      3          6           0       -0.754046   -3.617798    0.000000
      4          6           0        0.151628   -3.165344    0.000000
      5          6           0        2.099830    1.366836    0.000000
      6          6           0        2.128143    3.176030    0.000000
      7          6           0        1.059330    3.893060    0.000000
      8          6           0       -0.026797    3.067825    0.000000
      9          6           0       -1.258773    0.733352    0.000000
     10          6           0        1.105291   -0.989537    0.000000
     11          6           0       -1.318496   -0.887850    0.000000
     12          6           0        0.092911   -1.579749    0.000000
     13          6           0        0.000000    1.276145    0.000000
     14          6           0        1.095543    0.685396    0.000000
     15          1           0       -3.219794   -1.050838    0.000000
     16          1           0       -2.961644   -3.405210    0.000000
     17          1           0       -0.909807   -4.711267    0.000000
     18          1           0        1.176089   -3.535639    0.000000
     19          1           0        2.121547   -1.373186    0.000000
     20          1           0        3.128183    1.004420    0.000000
     21          1           0        3.175656    3.552522    0.000000
     22          1           0        1.029810    4.966325    0.000000
     23          1           0       -1.055857    3.430378    0.000000
     24          1           0       -1.674158    1.455982    0.859585
     25          1           0       -1.674158    1.455982   -0.859585
 ---------------------------------------------------------------------

 SCF Done:  E(RM062X) =  -538.903256467     A.U. after   18 cycles

 Excitation energies and oscillator strengths:

 Excited State   1:      Singlet-A'     0.9825 eV 1261.88 nm  f=0.1002  <S**2>=0.000
      47 -> 48         0.73459
      47 <- 48        -0.22241
 This state for optimization and/or second-order correction.
 Total Energy, E(TD-HF/TD-DFT) =  -538.867148823
 Copying the excited state density for this state as the 1-particle RhoCI density.

 The electronic state is 1-A'.
 Alpha  occ. eigenvalues --  -10.78585 -10.73518 -10.72147 -10.71123 -10.71020
 Alpha  occ. eigenvalues --  -10.70674 -10.70609 -10.69727 -10.69425 -10.69246
 Alpha  occ. eigenvalues --  -10.68333 -10.68316 -10.67164 -10.66830  -1.21322
 Alpha  occ. eigenvalues --   -1.14222  -1.13404  -1.07100  -1.04228  -1.02183
 Alpha  occ. eigenvalues --   -0.96032  -0.87755  -0.85934  -0.84441  -0.82871
 Alpha  occ. eigenvalues --   -0.77127  -0.76324  -0.74734  -0.73962  -0.70047
 Alpha  occ. eigenvalues --   -0.69619  -0.69111  -0.67038  -0.64454  -0.64122
 Alpha  occ. eigenvalues --   -0.62797  -0.62224  -0.60046  -0.58474  -0.56938
 Alpha  occ. eigenvalues --   -0.55743  -0.54488  -0.52943  -0.50872  -0.49122
 Alpha  occ. eigenvalues --   -0.46349  -0.35225
 Alpha virt. eigenvalues --   -0.27404  -0.16698  -0.11495  -0.10531  -0.10404
 Alpha virt. eigenvalues --   -0.09896  -0.08484  -0.07911  -0.07749  -0.07320
 Alpha virt. eigenvalues --   -0.07085  -0.06195  -0.05968  -0.05564  -0.05245

 Mulliken charges:
               1
     1  C   -0.035147
     2  C   -0.498604
     3  C   -0.358186
     4  C   -0.014325
     5  C   -0.159205
     6  C   -0.322748
     7  C   -0.496902
     8  C    0.208198
     9  C   -0.389896
    10  C   -0.113127
    11  C   -0.776149
    12  C    0.519299
    13  C    0.191894
    14  C    0.626958
    15  H    0.237894
    16  H    0.275413
    17  H    0.258025
    18  H    0.232689
    19  H    0.145003
    20  H    0.209506
    21  H    0.245324
    22  H    0.239219
    23  H    0.230072
    24  H    0.272398
    25  H    0.272398
 Sum of Mulliken charges =   1.00000

 Dipole moment (field-independent basis, Debye):
    X=             -3.0233    Y=             -3.6686    Z=             -0.0000  Tot=              4.7538
 Quadrupole moment (field-independent basis, Debye-Ang):
   XX=            -53.1448   YY=            -29.0579   ZZ=            -82.7480
   XY=             10.7709   XZ=              0.0000   YZ=             -0.0000

 Normal termination of Gaussian 16 at Tue Aug  2 13:33:46 2022.
