 Gaussian 16, Revision C.01,
 Gaussian 16:  ES64L-G16RevC.01  3-Jul-2019

 ---------------------------------------------------------------
 #n M062X/6-311++G(d,p) TD(NStates=1) EmpiricalDispersion=GD3 SP
 ---------------------------------------------------------------

 ----
 SP_0
 ----
 Symbolic Z-matrix:
 Charge =  1 Multiplicity = 1

                         Standard orientation:
 ---------------------------------------------------------------------
 Center     Atomic      Atomic             Coordinates (Angstroms)
 Number     Number       Type             X           Y           Z
 ---------------------------------------------------------------------
      1          6           0       -2.366231   -1.688238    0.000000
      2          6           0       -2.196183   -3.074685    0.000000
      3          6           0       -0.912716   -3.612421    0.000000
      4          6           0        0.193162   -2.770958    0.000000
      5          6           0        2.386769    1.640598    0.000000
      6          6           0        2.227614    3.052709    0.000000
      7          6           0        0.966612    3.618818    0.000000
      8          6           0       -0.132701    2.769610    0.000000
      9          6           0       -1.303897    0.642169    0.000000
     10          6           0        1.278379   -0.639467    0.000000
     11          6           0       -1.242183   -0.831202    0.000000
     12          6           0        0.062589   -1.384761    0.000000
     13          6           0        0.000000    1.372507    0.000000
     14          6           0        1.269097    0.781522    0.000000
     15          1           0       -3.365318   -1.266545    0.000000
     16          1           0       -3.055831   -3.730897    0.000000
     17          1           0       -0.766063   -4.682220    0.000000
     18          1           0        1.191704   -3.192179    0.000000
     19          1           0        2.210110   -1.196786    0.000000
     20          1           0        3.389109    1.227302    0.000000
     21          1           0        3.109073    3.683120    0.000000
     22          1           0        0.828634    4.690940    0.000000
     23          1           0       -1.135750    3.183035    0.000000
     24          1           0       -1.893768    1.013511    0.859585
     25          1           0       -1.893768    1.013511   -0.859585
 ---------------------------------------------------------------------

 SCF Done:  E(RM062X) =  -539.752596559     A.U. after   15 cycles

 Excitation energies and oscillator strengths:

 Excited State   1:      Singlet-A'     2.8098 eV  441.26 nm  f=0.0290  <S**2>=0.000
      47 -> 48         0.70417
 This state for optimization and/or second-order correction.
 Total Energy, E(TD-HF/TD-DFT) =  -539.649338034
 Copying the excited state density for this state as the 1-particle RhoCI density.

 The electronic state is 1-A'.
 Alpha  occ. eigenvalues --  -10.77809 -10.73494 -10.73081 -10.72629 -10.72360
 Alpha  occ. eigenvalues --  -10.71725 -10.71258 -10.71115 -10.71094 -10.70837
 Alpha  occ. eigenvalues --  -10.70398 -10.69866 -10.69667 -10.69474  -1.16437
 Alpha  occ. eigenvalues --   -1.12435  -1.06900  -1.05705  -1.01311  -1.00161
 Alpha  occ. eigenvalues --   -0.95716  -0.90970  -0.86675  -0.85615  -0.83767
 Alpha  occ. eigenvalues --   -0.78327  -0.75974  -0.74329  -0.69571  -0.69331
 Alpha  occ. eigenvalues --   -0.68466  -0.68058  -0.68013  -0.64698  -0.64238
 Alpha  occ. eigenvalues --   -0.62928  -0.61735  -0.59965  -0.59632  -0.59042
 Alpha  occ. eigenvalues --   -0.56792  -0.55268  -0.54784  -0.52404  -0.46636
 Alpha  occ. eigenvalues --   -0.46047  -0.44446
 Alpha virt. eigenvalues --   -0.26080  -0.14723  -0.14138  -0.12797  -0.11194
 Alpha virt. eigenvalues --   -0.10101  -0.09232  -0.07992  -0.07984  -0.07490
 Alpha virt. eigenvalues --   -0.07217  -0.07162  -0.05664  -0.05583  -0.05333

 Mulliken charges:
               1
     1  C   -0.033070
     2  C   -0.424007
     3  C   -0.408592
     4  C    0.105897
     5  C   -0.146541
     6  C   -0.455012
     7  C   -0.375198
     8  C    0.211906
     9  C   -0.375659
    10  C    0.067645
    11  C   -0.613844
    12  C    0.873750
    13  C   -0.596535
    14  C    0.540248
    15  H    0.239317
    16  H    0.255420
    17  H    0.251269
    18  H    0.213013
    19  H    0.194932
    20  H    0.227907
    21  H    0.248481
    22  H    0.258245
    23  H    0.238327
    24  H    0.251050
    25  H    0.251050
 Sum of Mulliken charges =   1.00000

 Dipole moment (field-independent basis, Debye):
    X=              0.1368    Y=             -0.1427    Z=              0.0000  Tot=              0.1977
 Quadrupole moment (field-independent basis, Debye-Ang):
   XX=            -51.4234   YY=            -35.9031   ZZ=            -84.2093
   XY=              9.9316   XZ=             -0.0000   YZ=              0.0000

 Normal termination of Gaussian 16 at Tue Aug  2 12:41:41 2022.
