 Gaussian 16, Revision C.01,
 Gaussian 16:  ES64L-G16RevC.01  3-Jul-2019

 ---------------------------------------------------------------
 #n M062X/6-311++G(d,p) TD(NStates=1) EmpiricalDispersion=GD3 SP
 ---------------------------------------------------------------

 ----
 SP_3
 ----
 Symbolic Z-matrix:
 Charge =  1 Multiplicity = 1

                         Standard orientation:
 ---------------------------------------------------------------------
 Center     Atomic      Atomic             Coordinates (Angstroms)
 Number     Number       Type             X           Y           Z
 ---------------------------------------------------------------------
      1          6           0       -2.390313   -1.474041    0.000000
      2          6           0       -2.323770   -2.840142    0.000000
      3          6           0       -1.102105   -3.560327    0.000000
      4          6           0        0.014861   -2.934049    0.000000
      5          6           0        2.353703    1.402435    0.000000
      6          6           0        2.385924    2.930816    0.000000
      7          6           0        1.237344    3.650468    0.000000
      8          6           0        0.054143    2.870839    0.000000
      9          6           0       -1.241310    0.757826    0.000000
     10          6           0        1.211971   -0.760702    0.000000
     11          6           0       -1.233258   -0.816483    0.000000
     12          6           0       -0.043740   -1.469400    0.000000
     13          6           0        0.000000    1.385836    0.000000
     14          6           0        1.254417    0.640132    0.000000
     15          1           0       -3.294437   -0.877848    0.000000
     16          1           0       -3.282727   -3.340121    0.000000
     17          1           0       -1.064960   -4.637667    0.000000
     18          1           0        0.927278   -3.514038    0.000000
     19          1           0        2.117132   -1.356807    0.000000
     20          1           0        3.275653    0.827174    0.000000
     21          1           0        3.326890    3.468586    0.000000
     22          1           0        1.284286    4.730905    0.000000
     23          1           0       -0.859699    3.461973    0.000000
     24          1           0       -1.748308    1.269294    0.859585
     25          1           0       -1.748308    1.269294   -0.859585
 ---------------------------------------------------------------------

 SCF Done:  E(RM062X) =  -539.682261206     A.U. after   16 cycles

 Excitation energies and oscillator strengths:

 Excited State   1:      Singlet-A'     2.2387 eV  553.83 nm  f=0.0240  <S**2>=0.000
      47 -> 48         0.70410
 This state for optimization and/or second-order correction.
 Total Energy, E(TD-HF/TD-DFT) =  -539.599991611
 Copying the excited state density for this state as the 1-particle RhoCI density.

 The electronic state is 1-A'.
 Alpha  occ. eigenvalues --  -10.77662 -10.73466 -10.73345 -10.72899 -10.71889
 Alpha  occ. eigenvalues --  -10.71849 -10.71561 -10.71314 -10.70688 -10.70316
 Alpha  occ. eigenvalues --  -10.70171 -10.69991 -10.69617 -10.68940  -1.17116
 Alpha  occ. eigenvalues --   -1.12937  -1.06647  -1.06444  -1.02436  -1.01294
 Alpha  occ. eigenvalues --   -0.94757  -0.90753  -0.86850  -0.85678  -0.83596
 Alpha  occ. eigenvalues --   -0.77973  -0.76576  -0.74009  -0.69754  -0.69542
 Alpha  occ. eigenvalues --   -0.68379  -0.68146  -0.68071  -0.65682  -0.64766
 Alpha  occ. eigenvalues --   -0.61988  -0.61377  -0.60699  -0.58738  -0.58458
 Alpha  occ. eigenvalues --   -0.57397  -0.54892  -0.53883  -0.52362  -0.48953
 Alpha  occ. eigenvalues --   -0.46246  -0.42213
 Alpha virt. eigenvalues --   -0.26100  -0.15302  -0.13879  -0.12366  -0.11206
 Alpha virt. eigenvalues --   -0.10131  -0.09270  -0.07992  -0.07759  -0.07505
 Alpha virt. eigenvalues --   -0.07229  -0.07092  -0.05703  -0.05583  -0.05404

 Mulliken charges:
               1
     1  C   -0.000886
     2  C   -0.483116
     3  C   -0.398532
     4  C   -0.270142
     5  C    0.165641
     6  C   -0.401918
     7  C   -0.347048
     8  C    0.245582
     9  C   -0.410456
    10  C   -0.014155
    11  C   -0.591866
    12  C    1.090644
    13  C   -0.615895
    14  C    0.411152
    15  H    0.233067
    16  H    0.263475
    17  H    0.240041
    18  H    0.231242
    19  H    0.189842
    20  H    0.204724
    21  H    0.251681
    22  H    0.249630
    23  H    0.240477
    24  H    0.258408
    25  H    0.258408
 Sum of Mulliken charges =   1.00000

 Dipole moment (field-independent basis, Debye):
    X=             -0.2748    Y=             -0.7416    Z=              0.0000  Tot=              0.7909
 Quadrupole moment (field-independent basis, Debye-Ang):
   XX=            -52.5796   YY=            -35.1377   ZZ=            -84.0764
   XY=              9.3415   XZ=             -0.0000   YZ=              0.0000

 Normal termination of Gaussian 16 at Wed Jul 27 12:03:00 2022.
