 Gaussian 16, Revision C.01,
 Gaussian 16:  ES64L-G16RevC.01  3-Jul-2019

 ---------------------------------------------------------------
 #n M062X/6-311++G(d,p) TD(NStates=1) EmpiricalDispersion=GD3 SP
 ---------------------------------------------------------------

 ----
 SP_2
 ----
 Symbolic Z-matrix:
 Charge =  1 Multiplicity = 1

                         Standard orientation:
 ---------------------------------------------------------------------
 Center     Atomic      Atomic             Coordinates (Angstroms)
 Number     Number       Type             X           Y           Z
 ---------------------------------------------------------------------
      1          6           0       -2.407762   -1.509289    0.000000
      2          6           0       -2.373115   -2.880096    0.000000
      3          6           0       -1.156932   -3.561001    0.000000
      4          6           0        0.023459   -2.865637    0.000000
      5          6           0        2.407618    1.445409    0.000000
      6          6           0        2.413909    2.883665    0.000000
      7          6           0        1.228939    3.587535    0.000000
      8          6           0        0.033158    2.837577    0.000000
      9          6           0       -1.256640    0.730520    0.000000
     10          6           0        1.247626   -0.697146    0.000000
     11          6           0       -1.200946   -0.796757    0.000000
     12          6           0       -0.011820   -1.444228    0.000000
     13          6           0        0.000000    1.423672    0.000000
     14          6           0        1.259297    0.680507    0.000000
     15          1           0       -3.315937   -0.918213    0.000000
     16          1           0       -3.320180   -3.398483    0.000000
     17          1           0       -1.093411   -4.639103    0.000000
     18          1           0        0.936988   -3.445739    0.000000
     19          1           0        2.162322   -1.276304    0.000000
     20          1           0        3.328933    0.871018    0.000000
     21          1           0        3.340456    3.443536    0.000000
     22          1           0        1.253972    4.668558    0.000000
     23          1           0       -0.882989    3.422611    0.000000
     24          1           0       -1.825453    1.131866    0.859585
     25          1           0       -1.825453    1.131866   -0.859585
 ---------------------------------------------------------------------

 SCF Done:  E(RM062X) =  -539.742939777     A.U. after   16 cycles

 Excitation energies and oscillator strengths:

 Excited State   1:      Singlet-A'     2.7595 eV  449.30 nm  f=0.0324  <S**2>=0.000
      47 -> 48         0.70027
 This state for optimization and/or second-order correction.
 Total Energy, E(TD-HF/TD-DFT) =  -539.641530781
 Copying the excited state density for this state as the 1-particle RhoCI density.

 The electronic state is 1-A'.
 Alpha  occ. eigenvalues --  -10.77609 -10.73857 -10.72600 -10.72581 -10.72247
 Alpha  occ. eigenvalues --  -10.72223 -10.71652 -10.71023 -10.70549 -10.70474
 Alpha  occ. eigenvalues --  -10.70332 -10.70284 -10.69460 -10.68970  -1.16527
 Alpha  occ. eigenvalues --   -1.12556  -1.07005  -1.05964  -1.01273  -1.00372
 Alpha  occ. eigenvalues --   -0.95722  -0.91170  -0.86382  -0.85817  -0.83712
 Alpha  occ. eigenvalues --   -0.78416  -0.76052  -0.74352  -0.70108  -0.69014
 Alpha  occ. eigenvalues --   -0.68566  -0.68164  -0.67895  -0.64894  -0.64091
 Alpha  occ. eigenvalues --   -0.62985  -0.61653  -0.60180  -0.59633  -0.59292
 Alpha  occ. eigenvalues --   -0.56803  -0.55031  -0.54486  -0.52512  -0.46632
 Alpha  occ. eigenvalues --   -0.46177  -0.44369
 Alpha virt. eigenvalues --   -0.26125  -0.14876  -0.13886  -0.12676  -0.11187
 Alpha virt. eigenvalues --   -0.10104  -0.09241  -0.08010  -0.07916  -0.07469
 Alpha virt. eigenvalues --   -0.07209  -0.07126  -0.05648  -0.05591  -0.05361

 Mulliken charges:
               1
     1  C    0.040242
     2  C   -0.446840
     3  C   -0.435107
     4  C   -0.199538
     5  C    0.123466
     6  C   -0.415797
     7  C   -0.347330
     8  C    0.146665
     9  C   -0.405028
    10  C    0.029719
    11  C   -0.602943
    12  C    0.977927
    13  C   -0.649445
    14  C    0.561429
    15  H    0.234149
    16  H    0.255369
    17  H    0.241372
    18  H    0.226706
    19  H    0.191519
    20  H    0.216201
    21  H    0.255441
    22  H    0.257145
    23  H    0.243597
    24  H    0.250541
    25  H    0.250541
 Sum of Mulliken charges =   1.00000

 Dipole moment (field-independent basis, Debye):
    X=              0.5267    Y=              0.5483    Z=             -0.0000  Tot=              0.7603
 Quadrupole moment (field-independent basis, Debye-Ang):
   XX=            -51.4206   YY=            -36.0625   ZZ=            -84.1218
   XY=             10.0364   XZ=              0.0000   YZ=              0.0000

 Normal termination of Gaussian 16 at Wed Jul 27 11:49:05 2022.
