 Gaussian 16, Revision C.01,
 Gaussian 16:  ES64L-G16RevC.01  3-Jul-2019

 ---------------------------------------------------------------
 #n M062X/6-311++G(d,p) TD(NStates=1) EmpiricalDispersion=GD3 SP
 ---------------------------------------------------------------

 ----
 SP_5
 ----
 Symbolic Z-matrix:
 Charge =  1 Multiplicity = 1

                         Standard orientation:
 ---------------------------------------------------------------------
 Center     Atomic      Atomic             Coordinates (Angstroms)
 Number     Number       Type             X           Y           Z
 ---------------------------------------------------------------------
      1          6           0        2.471279   -1.450183    0.000000
      2          6           0        3.631465   -0.782751    0.000000
      3          6           0        3.690140    0.609878    0.000000
      4          6           0        2.542735    1.344972    0.000000
      5          6           0       -2.382298    1.466277    0.000000
      6          6           0       -3.674759    0.818083    0.000000
      7          6           0       -3.768165   -0.557358    0.000000
      8          6           0       -2.510816   -1.270906    0.000000
      9          6           0       -0.094883   -1.450984    0.000000
     10          6           0       -0.000000    1.430014    0.000000
     11          6           0        1.276931   -0.656804    0.000000
     12          6           0        1.314960    0.597497    0.000000
     13          6           0       -1.250070   -0.699020    0.000000
     14          6           0       -1.152510    0.859435    0.000000
     15          1           0        2.246192   -2.521373    0.000000
     16          1           0        4.495123   -1.433153    0.000000
     17          1           0        4.584753    1.219371    0.000000
     18          1           0        2.737626    2.416493    0.000000
     19          1           0        0.187622    2.505340    0.000000
     20          1           0       -2.195851    2.548091    0.000000
     21          1           0       -4.635382    1.328515    0.000000
     22          1           0       -4.768417   -0.982338    0.000000
     23          1           0       -2.727080   -2.352402    0.000000
     24          1           0       -0.244322   -2.138724    0.859585
     25          1           0       -0.244322   -2.138724   -0.859585
 ---------------------------------------------------------------------

 SCF Done:  E(RM062X) =  -539.657946699     A.U. after   15 cycles

 Excitation energies and oscillator strengths:

 Excited State   1:      Singlet-A'     2.7069 eV  458.03 nm  f=0.0378  <S**2>=0.000
      46 -> 48        -0.22242
      47 -> 48         0.66795
 This state for optimization and/or second-order correction.
 Total Energy, E(TD-HF/TD-DFT) =  -539.558470322
 Copying the excited state density for this state as the 1-particle RhoCI density.

 The electronic state is 1-A'.
 Alpha  occ. eigenvalues --  -10.76782 -10.74941 -10.74176 -10.73658 -10.72835
 Alpha  occ. eigenvalues --  -10.71535 -10.71347 -10.71198 -10.71071 -10.70843
 Alpha  occ. eigenvalues --  -10.69218 -10.68589 -10.68425 -10.67914  -1.16902
 Alpha  occ. eigenvalues --   -1.12797  -1.07879  -1.06972  -1.01164  -1.00010
 Alpha  occ. eigenvalues --   -0.96052  -0.91996  -0.85927  -0.85319  -0.83113
 Alpha  occ. eigenvalues --   -0.78640  -0.76123  -0.74168  -0.71548  -0.69379
 Alpha  occ. eigenvalues --   -0.68527  -0.68491  -0.66427  -0.65181  -0.63300
 Alpha  occ. eigenvalues --   -0.62250  -0.61453  -0.60594  -0.59907  -0.59899
 Alpha  occ. eigenvalues --   -0.56353  -0.54140  -0.53057  -0.52225  -0.46575
 Alpha  occ. eigenvalues --   -0.46395  -0.44239
 Alpha virt. eigenvalues --   -0.26414  -0.15170  -0.13157  -0.12224  -0.11268
 Alpha virt. eigenvalues --   -0.10227  -0.09390  -0.08103  -0.07687  -0.07479
 Alpha virt. eigenvalues --   -0.07232  -0.06836  -0.05658  -0.05628  -0.05552

 Mulliken charges:
               1
     1  C    0.008984
     2  C   -0.515817
     3  C   -0.363525
     4  C   -0.026874
     5  C    0.166365
     6  C   -0.365284
     7  C   -0.195971
     8  C    0.106773
     9  C   -0.563463
    10  C   -0.200844
    11  C    0.195678
    12  C    0.519388
    13  C   -0.627398
    14  C    0.213790
    15  H    0.227694
    16  H    0.250448
    17  H    0.228958
    18  H    0.244872
    19  H    0.199240
    20  H    0.209358
    21  H    0.267794
    22  H    0.266162
    23  H    0.253156
    24  H    0.250258
    25  H    0.250258
 Sum of Mulliken charges =   1.00000

 Dipole moment (field-independent basis, Debye):
    X=             -2.7723    Y=              0.2781    Z=              0.0000  Tot=              2.7863
 Quadrupole moment (field-independent basis, Debye-Ang):
   XX=            -30.6994   YY=            -56.7789   ZZ=            -83.9849
   XY=              2.0107   XZ=             -0.0000   YZ=              0.0000

 Normal termination of Gaussian 16 at Wed Jul 27 12:17:19 2022.
