 Gaussian 16, Revision C.01,
 Gaussian 16:  ES64L-G16RevC.01  3-Jul-2019

 ---------------------------------------------------------------
 #n M062X/6-311++G(d,p) TD(NStates=1) EmpiricalDispersion=GD3 SP
 ---------------------------------------------------------------

 ----
 SP_5
 ----
 Symbolic Z-matrix:
 Charge =  1 Multiplicity = 1

                         Standard orientation:
 ---------------------------------------------------------------------
 Center     Atomic      Atomic             Coordinates (Angstroms)
 Number     Number       Type             X           Y           Z
 ---------------------------------------------------------------------
      1          6           0       -2.420453   -1.427899    0.000000
      2          6           0       -2.354597   -2.775218    0.000000
      3          6           0       -1.148671   -3.537415    0.000000
      4          6           0       -0.042067   -2.962568    0.000000
      5          6           0        2.355372    1.342422    0.000000
      6          6           0        2.432172    2.903842    0.000000
      7          6           0        1.313108    3.656009    0.000000
      8          6           0        0.110344    2.867271    0.000000
      9          6           0       -1.214984    0.801208    0.000000
     10          6           0        1.198095   -0.782211    0.000000
     11          6           0       -1.242496   -0.819669    0.000000
     12          6           0       -0.116348   -1.474863    0.000000
     13          6           0        0.000000    1.377815    0.000000
     14          6           0        1.282415    0.573967    0.000000
     15          1           0       -3.277352   -0.757692    0.000000
     16          1           0       -3.341315   -3.222764    0.000000
     17          1           0       -1.103400   -4.613610    0.000000
     18          1           0        0.829507   -3.606382    0.000000
     19          1           0        2.062311   -1.445598    0.000000
     20          1           0        3.240017    0.701129    0.000000
     21          1           0        3.370673    3.449408    0.000000
     22          1           0        1.419349    4.735904    0.000000
     23          1           0       -0.759820    3.534629    0.000000
     24          1           0       -1.675652    1.384414    0.859585
     25          1           0       -1.675652    1.384414   -0.859585
 ---------------------------------------------------------------------

 SCF Done:  E(RM062X) =  -539.600258977     A.U. after   16 cycles

 Excitation energies and oscillator strengths:

 Excited State   1:      Singlet-A'     2.0697 eV  599.05 nm  f=0.0293  <S**2>=0.000
      47 -> 48         0.70550
 This state for optimization and/or second-order correction.
 Total Energy, E(TD-HF/TD-DFT) =  -539.524199313
 Copying the excited state density for this state as the 1-particle RhoCI density.

 The electronic state is 1-A'.
 Alpha  occ. eigenvalues --  -10.77678 -10.74274 -10.72784 -10.72628 -10.72371
 Alpha  occ. eigenvalues --  -10.72056 -10.71623 -10.71066 -10.70787 -10.70726
 Alpha  occ. eigenvalues --  -10.70557 -10.69871 -10.69127 -10.68203  -1.17538
 Alpha  occ. eigenvalues --   -1.13443  -1.07216  -1.06612  -1.03439  -1.01465
 Alpha  occ. eigenvalues --   -0.94596  -0.90793  -0.87037  -0.85426  -0.83186
 Alpha  occ. eigenvalues --   -0.77895  -0.76684  -0.73870  -0.70277  -0.69784
 Alpha  occ. eigenvalues --   -0.68397  -0.68343  -0.67575  -0.65373  -0.64870
 Alpha  occ. eigenvalues --   -0.61844  -0.61743  -0.60384  -0.58859  -0.57993
 Alpha  occ. eigenvalues --   -0.57168  -0.54118  -0.53294  -0.52485  -0.49415
 Alpha  occ. eigenvalues --   -0.46291  -0.41726
 Alpha virt. eigenvalues --   -0.26145  -0.15697  -0.13779  -0.11954  -0.11227
 Alpha virt. eigenvalues --   -0.10194  -0.09270  -0.08115  -0.07636  -0.07507
 Alpha virt. eigenvalues --   -0.07227  -0.06988  -0.05773  -0.05618  -0.05487

 Mulliken charges:
               1
     1  C   -0.037197
     2  C   -0.516632
     3  C   -0.389514
     4  C    0.040517
     5  C    0.134450
     6  C   -0.363858
     7  C   -0.215243
     8  C    0.212468
     9  C   -0.494722
    10  C   -0.180758
    11  C    0.162479
    12  C    0.546548
    13  C   -0.597331
    14  C    0.056297
    15  H    0.230054
    16  H    0.262037
    17  H    0.227478
    18  H    0.250849
    19  H    0.194957
    20  H    0.193611
    21  H    0.255616
    22  H    0.255296
    23  H    0.239566
    24  H    0.266517
    25  H    0.266517
 Sum of Mulliken charges =   1.00000

 Dipole moment (field-independent basis, Debye):
    X=              0.0693    Y=             -0.1003    Z=             -0.0000  Tot=              0.1219
 Quadrupole moment (field-independent basis, Debye-Ang):
   XX=            -53.6566   YY=            -34.7529   ZZ=            -84.0139
   XY=              8.8134   XZ=              0.0000   YZ=             -0.0000

 Normal termination of Gaussian 16 at Wed Jul 27 12:23:42 2022.
