 Gaussian 16, Revision C.01,
 Gaussian 16:  ES64L-G16RevC.01  3-Jul-2019

 ---------------------------------------------------------------
 #n M062X/6-311++G(d,p) TD(NStates=1) EmpiricalDispersion=GD3 SP
 ---------------------------------------------------------------

 ----
 SP_5
 ----
 Symbolic Z-matrix:
 Charge =  1 Multiplicity = 1

                         Standard orientation:
 ---------------------------------------------------------------------
 Center     Atomic      Atomic             Coordinates (Angstroms)
 Number     Number       Type             X           Y           Z
 ---------------------------------------------------------------------
      1          6           0       -2.459060   -1.443725    0.000000
      2          6           0       -2.430525   -2.784436    0.000000
      3          6           0       -1.239067   -3.523311    0.000000
      4          6           0       -0.061344   -2.897463    0.000000
      5          6           0        2.420747    1.358312    0.000000
      6          6           0        2.489169    2.831928    0.000000
      7          6           0        1.343311    3.584596    0.000000
      8          6           0        0.115127    2.825581    0.000000
      9          6           0       -1.218716    0.793631    0.000000
     10          6           0        1.235319   -0.718985    0.000000
     11          6           0       -1.208109   -0.800139    0.000000
     12          6           0       -0.119524   -1.448183    0.000000
     13          6           0        0.000000    1.418609    0.000000
     14          6           0        1.305071    0.583280    0.000000
     15          1           0       -3.292142   -0.736576    0.000000
     16          1           0       -3.419155   -3.223505    0.000000
     17          1           0       -1.156340   -4.600946    0.000000
     18          1           0        0.786679   -3.578370    0.000000
     19          1           0        2.086594   -1.401383    0.000000
     20          1           0        3.281867    0.679794    0.000000
     21          1           0        3.409490    3.410149    0.000000
     22          1           0        1.457916    4.664903    0.000000
     23          1           0       -0.731248    3.530016    0.000000
     24          1           0       -1.729031    1.288874    0.859585
     25          1           0       -1.729031    1.288874   -0.859585
 ---------------------------------------------------------------------

 SCF Done:  E(RM062X) =  -539.654847882     A.U. after   15 cycles

 Excitation energies and oscillator strengths:

 Excited State   1:      Singlet-A'     2.5992 eV  477.02 nm  f=0.0385  <S**2>=0.000
      46 -> 48        -0.11841
      47 -> 48         0.69250
 This state for optimization and/or second-order correction.
 Total Energy, E(TD-HF/TD-DFT) =  -539.559330471
 Copying the excited state density for this state as the 1-particle RhoCI density.

 The electronic state is 1-A'.
 Alpha  occ. eigenvalues --  -10.77143 -10.74810 -10.73815 -10.72896 -10.72729
 Alpha  occ. eigenvalues --  -10.71615 -10.71327 -10.71318 -10.71222 -10.71190
 Alpha  occ. eigenvalues --  -10.69405 -10.69030 -10.68675 -10.67982  -1.16925
 Alpha  occ. eigenvalues --   -1.12954  -1.07616  -1.06907  -1.01241  -1.00709
 Alpha  occ. eigenvalues --   -0.95720  -0.91777  -0.86100  -0.85368  -0.83209
 Alpha  occ. eigenvalues --   -0.78533  -0.76147  -0.74098  -0.71223  -0.69380
 Alpha  occ. eigenvalues --   -0.68613  -0.68515  -0.66678  -0.65064  -0.63424
 Alpha  occ. eigenvalues --   -0.62611  -0.61230  -0.60686  -0.59820  -0.59568
 Alpha  occ. eigenvalues --   -0.56451  -0.54048  -0.52910  -0.52824  -0.46824
 Alpha  occ. eigenvalues --   -0.46240  -0.44123
 Alpha virt. eigenvalues --   -0.26329  -0.15330  -0.13219  -0.12270  -0.11241
 Alpha virt. eigenvalues --   -0.10209  -0.09319  -0.08135  -0.07709  -0.07470
 Alpha virt. eigenvalues --   -0.07223  -0.06925  -0.05670  -0.05637  -0.05520

 Mulliken charges:
               1
     1  C   -0.001997
     2  C   -0.516575
     3  C   -0.370157
     4  C   -0.009721
     5  C    0.158016
     6  C   -0.366548
     7  C   -0.200008
     8  C    0.133711
     9  C   -0.548041
    10  C   -0.193114
    11  C    0.186904
    12  C    0.524017
    13  C   -0.621839
    14  C    0.179182
    15  H    0.228140
    16  H    0.253176
    17  H    0.228567
    18  H    0.246333
    19  H    0.199251
    20  H    0.205558
    21  H    0.264774
    22  H    0.263311
    23  H    0.250028
    24  H    0.253517
    25  H    0.253517
 Sum of Mulliken charges =   1.00000

 Dipole moment (field-independent basis, Debye):
    X=              1.2517    Y=              1.6995    Z=             -0.0000  Tot=              2.1107
 Quadrupole moment (field-independent basis, Debye-Ang):
   XX=            -52.6604   YY=            -35.2032   ZZ=            -84.0118
   XY=              9.6644   XZ=              0.0000   YZ=             -0.0000

 Normal termination of Gaussian 16 at Wed Jul 27 12:19:03 2022.
