 Gaussian 16, Revision C.01,
 Gaussian 16:  ES64L-G16RevC.01  3-Jul-2019

 ---------------------------------------------------------------
 #n M062X/6-311++G(d,p) TD(NStates=1) EmpiricalDispersion=GD3 SP
 ---------------------------------------------------------------

 ----
 SP_1
 ----
 Symbolic Z-matrix:
 Charge =  1 Multiplicity = 1

                         Standard orientation:
 ---------------------------------------------------------------------
 Center     Atomic      Atomic             Coordinates (Angstroms)
 Number     Number       Type             X           Y           Z
 ---------------------------------------------------------------------
      1          6           0       -2.346412   -1.514192    0.000000
      2          6           0       -2.265420   -2.901269    0.000000
      3          6           0       -1.023902   -3.586355    0.000000
      4          6           0        0.078721   -2.925837    0.000000
      5          6           0        2.328704    1.457201    0.000000
      6          6           0        2.318792    2.980731    0.000000
      7          6           0        1.150352    3.666951    0.000000
      8          6           0       -0.005163    2.887157    0.000000
      9          6           0       -1.265365    0.715967    0.000000
     10          6           0        1.214384   -0.760373    0.000000
     11          6           0       -1.235720   -0.820711    0.000000
     12          6           0        0.030407   -1.470252    0.000000
     13          6           0        0.000000    1.380991    0.000000
     14          6           0        1.216562    0.702111    0.000000
     15          1           0       -3.302261   -1.006702    0.000000
     16          1           0       -3.193858   -3.455655    0.000000
     17          1           0       -1.007027   -4.665929    0.000000
     18          1           0        1.036860   -3.427535    0.000000
     19          1           0        2.161992   -1.280942    0.000000
     20          1           0        3.292733    0.962325    0.000000
     21          1           0        3.269549    3.500785    0.000000
     22          1           0        1.135010    4.745533    0.000000
     23          1           0       -0.967080    3.387490    0.000000
     24          1           0       -1.800784    1.183956    0.859585
     25          1           0       -1.800784    1.183956   -0.859585
 ---------------------------------------------------------------------

 SCF Done:  E(RM062X) =  -539.704658477     A.U. after   16 cycles

 Excitation energies and oscillator strengths:

 Excited State   1:      Singlet-A'     2.1813 eV  568.38 nm  f=0.0162  <S**2>=0.000
      47 -> 48         0.70325
 This state for optimization and/or second-order correction.
 Total Energy, E(TD-HF/TD-DFT) =  -539.624495642
 Copying the excited state density for this state as the 1-particle RhoCI density.

 The electronic state is 1-A'.
 Alpha  occ. eigenvalues --  -10.77279 -10.74191 -10.73415 -10.73223 -10.72334
 Alpha  occ. eigenvalues --  -10.71747 -10.71246 -10.71156 -10.70363 -10.70267
 Alpha  occ. eigenvalues --  -10.69799 -10.69679 -10.69233 -10.68954  -1.17167
 Alpha  occ. eigenvalues --   -1.12655  -1.06754  -1.06527  -1.01840  -1.01181
 Alpha  occ. eigenvalues --   -0.94799  -0.90661  -0.86717  -0.85742  -0.83740
 Alpha  occ. eigenvalues --   -0.77864  -0.76723  -0.74113  -0.70177  -0.69478
 Alpha  occ. eigenvalues --   -0.68146  -0.68010  -0.67796  -0.66305  -0.64424
 Alpha  occ. eigenvalues --   -0.61940  -0.61452  -0.60858  -0.59006  -0.58451
 Alpha  occ. eigenvalues --   -0.56952  -0.55435  -0.53419  -0.52341  -0.49531
 Alpha  occ. eigenvalues --   -0.46248  -0.41750
 Alpha virt. eigenvalues --   -0.26171  -0.14974  -0.13883  -0.12528  -0.11240
 Alpha virt. eigenvalues --   -0.10125  -0.09361  -0.07880  -0.07714  -0.07535
 Alpha virt. eigenvalues --   -0.07243  -0.07058  -0.05681  -0.05543  -0.05415

 Mulliken charges:
               1
     1  C    0.030374
     2  C   -0.428932
     3  C   -0.422219
     4  C   -0.011351
     5  C    0.023925
     6  C   -0.440288
     7  C   -0.393668
     8  C    0.182971
     9  C   -0.350278
    10  C    0.057271
    11  C   -0.653707
    12  C    0.804593
    13  C   -0.557633
    14  C    0.540029
    15  H    0.238394
    16  H    0.268017
    17  H    0.250952
    18  H    0.231091
    19  H    0.185467
    20  H    0.211069
    21  H    0.244052
    22  H    0.245731
    23  H    0.234189
    24  H    0.254975
    25  H    0.254975
 Sum of Mulliken charges =   1.00000

 Dipole moment (field-independent basis, Debye):
    X=             -0.9950    Y=             -2.0098    Z=             -0.0000  Tot=              2.2426
 Quadrupole moment (field-independent basis, Debye-Ang):
   XX=            -51.9095   YY=            -35.0726   ZZ=            -84.0642
   XY=              9.8513   XZ=              0.0000   YZ=             -0.0000

 Normal termination of Gaussian 16 at Wed Jul 27 11:44:26 2022.
