 Gaussian 16, Revision C.01,
 Gaussian 16:  ES64L-G16RevC.01  3-Jul-2019

 ---------------------------------------------------------------
 #n M062X/6-311++G(d,p) TD(NStates=1) EmpiricalDispersion=GD3 SP
 ---------------------------------------------------------------

 ----
 SP_5
 ----
 Symbolic Z-matrix:
 Charge =  1 Multiplicity = 1

                         Standard orientation:
 ---------------------------------------------------------------------
 Center     Atomic      Atomic             Coordinates (Angstroms)
 Number     Number       Type             X           Y           Z
 ---------------------------------------------------------------------
      1          6           0       -2.433353   -1.433084    0.000000
      2          6           0       -2.380042   -2.778273    0.000000
      3          6           0       -1.179054   -3.532799    0.000000
      4          6           0       -0.048833   -2.940873    0.000000
      5          6           0        2.377189    1.347693    0.000000
      6          6           0        2.451495    2.879805    0.000000
      7          6           0        1.323561    3.632144    0.000000
      8          6           0        0.112219    2.853345    0.000000
      9          6           0       -1.216144    0.798746    0.000000
     10          6           0        1.210296   -0.761123    0.000000
     11          6           0       -1.231117   -0.812991    0.000000
     12          6           0       -0.117562   -1.465952    0.000000
     13          6           0        0.000000    1.391397    0.000000
     14          6           0        1.289969    0.577030    0.000000
     15          1           0       -3.282342   -0.750462    0.000000
     16          1           0       -3.367434   -3.222927    0.000000
     17          1           0       -1.121366   -4.609382    0.000000
     18          1           0        0.814921   -3.597154    0.000000
     19          1           0        2.070187   -1.430926    0.000000
     20          1           0        3.254024    0.693889    0.000000
     21          1           0        3.383888    3.436147    0.000000
     22          1           0        1.432659    4.712176    0.000000
     23          1           0       -0.750044    3.533165    0.000000
     24          1           0       -1.693121    1.352544    0.859585
     25          1           0       -1.693121    1.352544   -0.859585
 ---------------------------------------------------------------------

 SCF Done:  E(RM062X) =  -539.626176175     A.U. after   16 cycles

 Excitation energies and oscillator strengths:

 Excited State   1:      Singlet-A'     2.2542 eV  550.01 nm  f=0.0314  <S**2>=0.000
      47 -> 48         0.70512
 This state for optimization and/or second-order correction.
 Total Energy, E(TD-HF/TD-DFT) =  -539.543335393
 Copying the excited state density for this state as the 1-particle RhoCI density.

 The electronic state is 1-A'.
 Alpha  occ. eigenvalues --  -10.77598 -10.74468 -10.72901 -10.72393 -10.72337
 Alpha  occ. eigenvalues --  -10.72242 -10.71469 -10.71429 -10.70923 -10.70834
 Alpha  occ. eigenvalues --  -10.70342 -10.69740 -10.68966 -10.68131  -1.17232
 Alpha  occ. eigenvalues --   -1.13297  -1.07221  -1.06753  -1.02534  -1.01378
 Alpha  occ. eigenvalues --   -0.94919  -0.91181  -0.86661  -0.85439  -0.83241
 Alpha  occ. eigenvalues --   -0.78139  -0.76451  -0.73940  -0.70534  -0.69619
 Alpha  occ. eigenvalues --   -0.68509  -0.68445  -0.67262  -0.65029  -0.64637
 Alpha  occ. eigenvalues --   -0.62152  -0.61408  -0.60673  -0.59206  -0.58561
 Alpha  occ. eigenvalues --   -0.56840  -0.53923  -0.53508  -0.52615  -0.48421
 Alpha  occ. eigenvalues --   -0.46269  -0.42615
 Alpha virt. eigenvalues --   -0.26194  -0.15588  -0.13546  -0.12125  -0.11221
 Alpha virt. eigenvalues --   -0.10192  -0.09252  -0.08145  -0.07687  -0.07483
 Alpha virt. eigenvalues --   -0.07221  -0.06998  -0.05728  -0.05630  -0.05485

 Mulliken charges:
               1
     1  C   -0.025435
     2  C   -0.516935
     3  C   -0.383272
     4  C    0.023995
     5  C    0.142165
     6  C   -0.365677
     7  C   -0.209587
     8  C    0.186742
     9  C   -0.512764
    10  C   -0.183091
    11  C    0.170851
    12  C    0.537818
    13  C   -0.607411
    14  C    0.099397
    15  H    0.229342
    16  H    0.259031
    17  H    0.227845
    18  H    0.249349
    19  H    0.197109
    20  H    0.197594
    21  H    0.258642
    22  H    0.257816
    23  H    0.243172
    24  H    0.261651
    25  H    0.261651
 Sum of Mulliken charges =   1.00000

 Dipole moment (field-independent basis, Debye):
    X=              0.4829    Y=              0.4972    Z=             -0.0000  Tot=              0.6931
 Quadrupole moment (field-independent basis, Debye-Ang):
   XX=            -53.3495   YY=            -34.9824   ZZ=            -84.0267
   XY=              9.0417   XZ=             -0.0000   YZ=             -0.0000

 Normal termination of Gaussian 16 at Wed Jul 27 12:22:08 2022.
