 Gaussian 16, Revision C.01,
 Gaussian 16:  ES64L-G16RevC.01  3-Jul-2019

 ---------------------------------------------------------------
 #n M062X/6-311++G(d,p) TD(NStates=1) EmpiricalDispersion=GD3 SP
 ---------------------------------------------------------------

 ----
 SP_2
 ----
 Symbolic Z-matrix:
 Charge =  1 Multiplicity = 1

                         Standard orientation:
 ---------------------------------------------------------------------
 Center     Atomic      Atomic             Coordinates (Angstroms)
 Number     Number       Type             X           Y           Z
 ---------------------------------------------------------------------
      1          6           0       -2.368468   -1.494222    0.000000
      2          6           0       -2.294852   -2.870806    0.000000
      3          6           0       -1.063154   -3.573533    0.000000
      4          6           0        0.046776   -2.930117    0.000000
      5          6           0        2.341392    1.429821    0.000000
      6          6           0        2.352549    2.955917    0.000000
      7          6           0        1.193938    3.658943    0.000000
      8          6           0        0.024639    2.879149    0.000000
      9          6           0       -1.253480    0.737011    0.000000
     10          6           0        1.213086   -0.760526    0.000000
     11          6           0       -1.234449   -0.818505    0.000000
     12          6           0       -0.006700   -1.470153    0.000000
     13          6           0        0.000000    1.383324    0.000000
     14          6           0        1.235776    0.671269    0.000000
     15          1           0       -3.298887   -0.942103    0.000000
     16          1           0       -3.238809   -3.398109    0.000000
     17          1           0       -1.036180   -4.651805    0.000000
     18          1           0        0.982429   -3.471205    0.000000
     19          1           0        2.139829   -1.319087    0.000000
     20          1           0        3.284768    0.894529    0.000000
     21          1           0        3.298258    3.484720    0.000000
     22          1           0        1.209747    4.738738    0.000000
     23          1           0       -0.913686    3.425139    0.000000
     24          1           0       -1.774892    1.226880    0.859585
     25          1           0       -1.774892    1.226880   -0.859585
 ---------------------------------------------------------------------

 SCF Done:  E(RM062X) =  -539.697592232     A.U. after   16 cycles

 Excitation energies and oscillator strengths:

 Excited State   1:      Singlet-A'     2.2147 eV  559.83 nm  f=0.0199  <S**2>=0.000
      47 -> 48         0.70360
 This state for optimization and/or second-order correction.
 Total Energy, E(TD-HF/TD-DFT) =  -539.616204226
 Copying the excited state density for this state as the 1-particle RhoCI density.

 The electronic state is 1-A'.
 Alpha  occ. eigenvalues --  -10.77524 -10.73797 -10.73096 -10.72911 -10.72632
 Alpha  occ. eigenvalues --  -10.71582 -10.71236 -10.71209 -10.70941 -10.69993
 Alpha  occ. eigenvalues --  -10.69947 -10.69632 -10.69521 -10.69368  -1.17124
 Alpha  occ. eigenvalues --   -1.12784  -1.06636  -1.06427  -1.02193  -1.01235
 Alpha  occ. eigenvalues --   -0.94755  -0.90661  -0.86823  -0.85728  -0.83702
 Alpha  occ. eigenvalues --   -0.77908  -0.76654  -0.74050  -0.69742  -0.69553
 Alpha  occ. eigenvalues --   -0.68425  -0.68058  -0.67942  -0.66044  -0.64623
 Alpha  occ. eigenvalues --   -0.61934  -0.61405  -0.60746  -0.58722  -0.58568
 Alpha  occ. eigenvalues --   -0.57266  -0.55208  -0.53755  -0.52318  -0.49249
 Alpha  occ. eigenvalues --   -0.46239  -0.41985
 Alpha virt. eigenvalues --   -0.26114  -0.15144  -0.13918  -0.12463  -0.11217
 Alpha virt. eigenvalues --   -0.10121  -0.09308  -0.07929  -0.07751  -0.07522
 Alpha virt. eigenvalues --   -0.07233  -0.07090  -0.05692  -0.05561  -0.05399

 Mulliken charges:
               1
     1  C    0.019988
     2  C   -0.459391
     3  C   -0.416193
     4  C   -0.123186
     5  C    0.096070
     6  C   -0.421705
     7  C   -0.368536
     8  C    0.212302
     9  C   -0.363378
    10  C    0.036208
    11  C   -0.648865
    12  C    0.928920
    13  C   -0.585763
    14  C    0.475203
    15  H    0.235119
    16  H    0.265808
    17  H    0.245455
    18  H    0.231280
    19  H    0.187106
    20  H    0.207659
    21  H    0.247814
    22  H    0.247741
    23  H    0.236725
    24  H    0.256809
    25  H    0.256809
 Sum of Mulliken charges =   1.00000

 Dipole moment (field-independent basis, Debye):
    X=             -0.6445    Y=             -1.3792    Z=             -0.0000  Tot=              1.5224
 Quadrupole moment (field-independent basis, Debye-Ang):
   XX=            -52.2289   YY=            -35.1340   ZZ=            -84.0784
   XY=              9.5727   XZ=              0.0000   YZ=             -0.0000

 Normal termination of Gaussian 16 at Wed Jul 27 11:54:09 2022.
