 Gaussian 16, Revision C.01,
 Gaussian 16:  ES64L-G16RevC.01  3-Jul-2019

 ---------------------------------------------------------------
 #n M062X/6-311++G(d,p) TD(NStates=1) EmpiricalDispersion=GD3 SP
 ---------------------------------------------------------------

 ----
 SP_4
 ----
 Symbolic Z-matrix:
 Charge =  1 Multiplicity = 1

                         Standard orientation:
 ---------------------------------------------------------------------
 Center     Atomic      Atomic             Coordinates (Angstroms)
 Number     Number       Type             X           Y           Z
 ---------------------------------------------------------------------
      1          6           0       -2.450712   -1.469396    0.000000
      2          6           0       -2.428598   -2.818548    0.000000
      3          6           0       -1.231773   -3.532968    0.000000
      4          6           0       -0.036970   -2.872695    0.000000
      5          6           0        2.431233    1.390886    0.000000
      6          6           0        2.476712    2.833512    0.000000
      7          6           0        1.311598    3.570204    0.000000
      8          6           0        0.088808    2.820618    0.000000
      9          6           0       -1.232554    0.771060    0.000000
     10          6           0        1.247786   -0.697639    0.000000
     11          6           0       -1.197883   -0.794708    0.000000
     12          6           0       -0.084221   -1.441576    0.000000
     13          6           0        0.000000    1.429210    0.000000
     14          6           0        1.295407    0.618067    0.000000
     15          1           0       -3.304299   -0.792291    0.000000
     16          1           0       -3.404255   -3.282466    0.000000
     17          1           0       -1.147091   -4.610840    0.000000
     18          1           0        0.828307   -3.528611    0.000000
     19          1           0        2.118005   -1.350208    0.000000
     20          1           0        3.307866    0.738475    0.000000
     21          1           0        3.394828    3.412816    0.000000
     22          1           0        1.398160    4.651384    0.000000
     23          1           0       -0.776327    3.493890    0.000000
     24          1           0       -1.774100    1.215847    0.859585
     25          1           0       -1.774100    1.215847   -0.859585
 ---------------------------------------------------------------------

 SCF Done:  E(RM062X) =  -539.695343975     A.U. after   15 cycles

 Excitation energies and oscillator strengths:

 Excited State   1:      Singlet-A'     2.7333 eV  453.60 nm  f=0.0385  <S**2>=0.000
      45 -> 48        -0.16690
      47 -> 48         0.68217
 This state for optimization and/or second-order correction.
 Total Energy, E(TD-HF/TD-DFT) =  -539.594896125
 Copying the excited state density for this state as the 1-particle RhoCI density.

 The electronic state is 1-A'.
 Alpha  occ. eigenvalues --  -10.77161 -10.74646 -10.73545 -10.73013 -10.72817
 Alpha  occ. eigenvalues --  -10.71594 -10.71420 -10.71133 -10.71082 -10.71054
 Alpha  occ. eigenvalues --  -10.69599 -10.69033 -10.68823 -10.68227  -1.16741
 Alpha  occ. eigenvalues --   -1.12696  -1.07461  -1.06630  -1.01120  -1.00218
 Alpha  occ. eigenvalues --   -0.95917  -0.91663  -0.86116  -0.85537  -0.83354
 Alpha  occ. eigenvalues --   -0.78554  -0.76076  -0.74249  -0.71099  -0.69216
 Alpha  occ. eigenvalues --   -0.68527  -0.68374  -0.66900  -0.65161  -0.63457
 Alpha  occ. eigenvalues --   -0.62590  -0.61488  -0.60375  -0.59889  -0.59822
 Alpha  occ. eigenvalues --   -0.56476  -0.54567  -0.53096  -0.52834  -0.46434
 Alpha  occ. eigenvalues --   -0.46392  -0.44347
 Alpha virt. eigenvalues --   -0.26296  -0.15087  -0.13441  -0.12410  -0.11231
 Alpha virt. eigenvalues --   -0.10171  -0.09323  -0.08067  -0.07756  -0.07463
 Alpha virt. eigenvalues --   -0.07223  -0.06992  -0.05651  -0.05612  -0.05472

 Mulliken charges:
               1
     1  C    0.003605
     2  C   -0.485985
     3  C   -0.365069
     4  C    0.007989
     5  C    0.155170
     6  C   -0.381337
     7  C   -0.223372
     8  C    0.101297
     9  C   -0.538609
    10  C   -0.188121
    11  C    0.159441
    12  C    0.527129
    13  C   -0.639586
    14  C    0.223335
    15  H    0.231074
    16  H    0.251804
    17  H    0.232920
    18  H    0.241953
    19  H    0.198919
    20  H    0.211213
    21  H    0.263917
    22  H    0.263445
    23  H    0.249314
    24  H    0.249777
    25  H    0.249777
 Sum of Mulliken charges =   1.00000

 Dipole moment (field-independent basis, Debye):
    X=              1.2562    Y=              1.7526    Z=              0.0000  Tot=              2.1563
 Quadrupole moment (field-independent basis, Debye-Ang):
   XX=            -51.9907   YY=            -35.5210   ZZ=            -84.0471
   XY=              9.9885   XZ=             -0.0000   YZ=              0.0000

 Normal termination of Gaussian 16 at Wed Jul 27 12:07:55 2022.
