 Gaussian 16, Revision C.01,
 Gaussian 16:  ES64L-G16RevC.01  3-Jul-2019

 ---------------------------------------------------------------
 #n M062X/6-311++G(d,p) TD(NStates=1) EmpiricalDispersion=GD3 SP
 ---------------------------------------------------------------

 ----
 SP_2
 ----
 Symbolic Z-matrix:
 Charge =  1 Multiplicity = 1

                         Standard orientation:
 ---------------------------------------------------------------------
 Center     Atomic      Atomic             Coordinates (Angstroms)
 Number     Number       Type             X           Y           Z
 ---------------------------------------------------------------------
      1          6           0       -2.355294   -1.489387    0.000000
      2          6           0       -2.268462   -2.867730    0.000000
      3          6           0       -1.031352   -3.577497    0.000000
      4          6           0        0.055287   -2.951566    0.000000
      5          6           0        2.319253    1.424674    0.000000
      6          6           0        2.331381    2.980113    0.000000
      7          6           0        1.181427    3.682840    0.000000
      8          6           0        0.021182    2.893043    0.000000
      9          6           0       -1.252598    0.739030    0.000000
     10          6           0        1.202027   -0.781667    0.000000
     11          6           0       -1.245424   -0.826118    0.000000
     12          6           0       -0.004656   -1.478809    0.000000
     13          6           0        0.000000    1.369913    0.000000
     14          6           0        1.227918    0.668269    0.000000
     15          1           0       -3.293040   -0.950480    0.000000
     16          1           0       -3.211288   -3.398139    0.000000
     17          1           0       -1.016402   -4.656030    0.000000
     18          1           0        0.998224   -3.479421    0.000000
     19          1           0        2.132789   -1.333185    0.000000
     20          1           0        3.269891    0.902643    0.000000
     21          1           0        3.283579    3.498805    0.000000
     22          1           0        1.194014    4.762211    0.000000
     23          1           0       -0.924446    3.425791    0.000000
     24          1           0       -1.758732    1.258575    0.859585
     25          1           0       -1.758732    1.258575   -0.859585
 ---------------------------------------------------------------------

 SCF Done:  E(RM062X) =  -539.667454206     A.U. after   16 cycles

 Excitation energies and oscillator strengths:

 Excited State   1:      Singlet-A'     2.0168 eV  614.76 nm  f=0.0194  <S**2>=0.000
      47 -> 48         0.70340
 This state for optimization and/or second-order correction.
 Total Energy, E(TD-HF/TD-DFT) =  -539.593338236
 Copying the excited state density for this state as the 1-particle RhoCI density.

 The electronic state is 1-A'.
 Alpha  occ. eigenvalues --  -10.77308 -10.74134 -10.73443 -10.73279 -10.72605
 Alpha  occ. eigenvalues --  -10.71330 -10.71329 -10.71180 -10.70460 -10.70097
 Alpha  occ. eigenvalues --  -10.69844 -10.69463 -10.69385 -10.68944  -1.17522
 Alpha  occ. eigenvalues --   -1.12841  -1.06965  -1.06503  -1.02590  -1.01291
 Alpha  occ. eigenvalues --   -0.94568  -0.90362  -0.86996  -0.85637  -0.83651
 Alpha  occ. eigenvalues --   -0.77669  -0.76929  -0.73980  -0.70168  -0.69528
 Alpha  occ. eigenvalues --   -0.68402  -0.68016  -0.67754  -0.66388  -0.64585
 Alpha  occ. eigenvalues --   -0.61835  -0.61565  -0.60602  -0.58643  -0.58236
 Alpha  occ. eigenvalues --   -0.57093  -0.55215  -0.53215  -0.52268  -0.50273
 Alpha  occ. eigenvalues --   -0.46295  -0.41091
 Alpha virt. eigenvalues --   -0.26156  -0.15218  -0.13951  -0.12272  -0.11250
 Alpha virt. eigenvalues --   -0.10141  -0.09375  -0.07878  -0.07650  -0.07554
 Alpha virt. eigenvalues --   -0.07253  -0.07026  -0.05715  -0.05541  -0.05437

 Mulliken charges:
               1
     1  C    0.012321
     2  C   -0.460903
     3  C   -0.410943
     4  C   -0.100727
     5  C    0.083190
     6  C   -0.421660
     7  C   -0.376917
     8  C    0.234608
     9  C   -0.360471
    10  C    0.026810
    11  C   -0.651389
    12  C    0.912862
    13  C   -0.549812
    14  C    0.444804
    15  H    0.235630
    16  H    0.269151
    17  H    0.246511
    18  H    0.232908
    19  H    0.184282
    20  H    0.205280
    21  H    0.245408
    22  H    0.245035
    23  H    0.234660
    24  H    0.259680
    25  H    0.259680
 Sum of Mulliken charges =   1.00000

 Dipole moment (field-independent basis, Debye):
    X=             -1.0407    Y=             -1.9723    Z=             -0.0000  Tot=              2.2301
 Quadrupole moment (field-independent basis, Debye-Ang):
   XX=            -52.4643   YY=            -34.6651   ZZ=            -84.0364
   XY=              9.5212   XZ=              0.0000   YZ=             -0.0000

 Normal termination of Gaussian 16 at Wed Jul 27 11:55:36 2022.
