 Gaussian 16, Revision C.01,
 Gaussian 16:  ES64L-G16RevC.01  3-Jul-2019

 ---------------------------------------------------------------
 #n M062X/6-311++G(d,p) TD(NStates=1) EmpiricalDispersion=GD3 SP
 ---------------------------------------------------------------

 ----
 SP_1
 ----
 Symbolic Z-matrix:
 Charge =  1 Multiplicity = 1

                         Standard orientation:
 ---------------------------------------------------------------------
 Center     Atomic      Atomic             Coordinates (Angstroms)
 Number     Number       Type             X           Y           Z
 ---------------------------------------------------------------------
      1          6           0       -2.333143   -1.509464    0.000000
      2          6           0       -2.238707   -2.898170    0.000000
      3          6           0       -0.991629   -3.590079    0.000000
      4          6           0        0.087810   -2.947182    0.000000
      5          6           0        2.306451    1.452088    0.000000
      6          6           0        2.297001    3.004956    0.000000
      7          6           0        1.137154    3.690831    0.000000
      8          6           0       -0.009151    2.901021    0.000000
      9          6           0       -1.264566    0.717833    0.000000
     10          6           0        1.203712   -0.781524    0.000000
     11          6           0       -1.246554   -0.828636    0.000000
     12          6           0        0.032726   -1.478803    0.000000
     13          6           0        0.000000    1.367641    0.000000
     14          6           0        1.208593    0.699121    0.000000
     15          1           0       -3.296095   -1.015455    0.000000
     16          1           0       -3.165852   -3.455722    0.000000
     17          1           0       -0.986640   -4.670136    0.000000
     18          1           0        1.053031   -3.435390    0.000000
     19          1           0        2.155215   -1.294838    0.000000
     20          1           0        3.277535    0.970726    0.000000
     21          1           0        3.254376    3.515129    0.000000
     22          1           0        1.118473    4.768880    0.000000
     23          1           0       -0.978144    3.387849    0.000000
     24          1           0       -1.785044    1.215578    0.859585
     25          1           0       -1.785044    1.215578   -0.859585
 ---------------------------------------------------------------------

 SCF Done:  E(RM062X) =  -539.673098565     A.U. after   16 cycles

 Excitation energies and oscillator strengths:

 Excited State   1:      Singlet-A'     1.9810 eV  625.85 nm  f=0.0165  <S**2>=0.000
      47 -> 48         0.70307
 This state for optimization and/or second-order correction.
 Total Energy, E(TD-HF/TD-DFT) =  -539.600296707
 Copying the excited state density for this state as the 1-particle RhoCI density.

 The electronic state is 1-A'.
 Alpha  occ. eigenvalues --  -10.76971 -10.74472 -10.74233 -10.73345 -10.72010
 Alpha  occ. eigenvalues --  -10.71845 -10.71232 -10.70820 -10.70399 -10.69919
 Alpha  occ. eigenvalues --  -10.69889 -10.69546 -10.69030 -10.68404  -1.17575
 Alpha  occ. eigenvalues --   -1.12700  -1.07231  -1.06580  -1.02144  -1.01215
 Alpha  occ. eigenvalues --   -0.94664  -0.90382  -0.86811  -0.85641  -0.83692
 Alpha  occ. eigenvalues --   -0.77624  -0.76995  -0.74081  -0.70576  -0.69488
 Alpha  occ. eigenvalues --   -0.68255  -0.67973  -0.67560  -0.66467  -0.64379
 Alpha  occ. eigenvalues --   -0.61865  -0.61641  -0.60967  -0.58652  -0.58144
 Alpha  occ. eigenvalues --   -0.56752  -0.55421  -0.52809  -0.52315  -0.50541
 Alpha  occ. eigenvalues --   -0.46324  -0.40868
 Alpha virt. eigenvalues --   -0.26246  -0.15033  -0.13836  -0.12340  -0.11282
 Alpha virt. eigenvalues --   -0.10149  -0.09436  -0.07833  -0.07621  -0.07567
 Alpha virt. eigenvalues --   -0.07266  -0.06961  -0.05699  -0.05520  -0.05459

 Mulliken charges:
               1
     1  C    0.021353
     2  C   -0.428612
     3  C   -0.416216
     4  C   -0.001824
     5  C    0.008484
     6  C   -0.441775
     7  C   -0.399977
     8  C    0.201943
     9  C   -0.359562
    10  C    0.039485
    11  C   -0.654876
    12  C    0.797217
    13  C   -0.508504
    14  C    0.523145
    15  H    0.239206
    16  H    0.271278
    17  H    0.252244
    18  H    0.232710
    19  H    0.182603
    20  H    0.209491
    21  H    0.241901
    22  H    0.243100
    23  H    0.232946
    24  H    0.257121
    25  H    0.257121
 Sum of Mulliken charges =   1.00000

 Dipole moment (field-independent basis, Debye):
    X=             -1.3739    Y=             -2.5807    Z=              0.0000  Tot=              2.9236
 Quadrupole moment (field-independent basis, Debye-Ang):
   XX=            -52.1328   YY=            -34.5221   ZZ=            -84.0128
   XY=              9.8465   XZ=             -0.0000   YZ=              0.0000

 Normal termination of Gaussian 16 at Wed Jul 27 11:45:57 2022.
