 Gaussian 16, Revision C.01,
 Gaussian 16:  ES64L-G16RevC.01  3-Jul-2019

 ---------------------------------------------------------------
 #n M062X/6-311++G(d,p) TD(NStates=1) EmpiricalDispersion=GD3 SP
 ---------------------------------------------------------------

 ----
 SP_4
 ----
 Symbolic Z-matrix:
 Charge =  1 Multiplicity = 1

                         Standard orientation:
 ---------------------------------------------------------------------
 Center     Atomic      Atomic             Coordinates (Angstroms)
 Number     Number       Type             X           Y           Z
 ---------------------------------------------------------------------
      1          6           0       -2.437821   -1.464062    0.000000
      2          6           0       -2.403258   -2.815447    0.000000
      3          6           0       -1.201679   -3.537648    0.000000
      4          6           0       -0.030656   -2.894350    0.000000
      5          6           0        2.409394    1.385584    0.000000
      6          6           0        2.457768    2.857425    0.000000
      7          6           0        1.301635    3.593923    0.000000
      8          6           0        0.087266    2.834464    0.000000
      9          6           0       -1.231242    0.773572    0.000000
     10          6           0        1.235332   -0.718715    0.000000
     11          6           0       -1.209388   -0.801187    0.000000
     12          6           0       -0.083201   -1.450369    0.000000
     13          6           0       -0.000000    1.415633    0.000000
     14          6           0        1.287769    0.614910    0.000000
     15          1           0       -3.299235   -0.799323    0.000000
     16          1           0       -3.378213   -3.282136    0.000000
     17          1           0       -1.129499   -4.615062    0.000000
     18          1           0        0.842378   -3.537861    0.000000
     19          1           0        2.109760   -1.364902    0.000000
     20          1           0        3.293771    0.745617    0.000000
     21          1           0        3.381973    3.425835    0.000000
     22          1           0        1.385425    4.674882    0.000000
     23          1           0       -0.785684    3.495331    0.000000
     24          1           0       -1.756095    1.247606    0.859585
     25          1           0       -1.756095    1.247606   -0.859585
 ---------------------------------------------------------------------

 SCF Done:  E(RM062X) =  -539.690413557     A.U. after   15 cycles

 Excitation energies and oscillator strengths:

 Excited State   1:      Singlet-A'     2.6116 eV  474.75 nm  f=0.0361  <S**2>=0.000
      47 -> 48         0.69893
 This state for optimization and/or second-order correction.
 Total Energy, E(TD-HF/TD-DFT) =  -539.594439403
 Copying the excited state density for this state as the 1-particle RhoCI density.

 The electronic state is 1-A'.
 Alpha  occ. eigenvalues --  -10.77431 -10.74448 -10.73164 -10.72644 -10.72249
 Alpha  occ. eigenvalues --  -10.72008 -10.71871 -10.71156 -10.70939 -10.70913
 Alpha  occ. eigenvalues --  -10.69819 -10.69661 -10.68970 -10.68327  -1.16780
 Alpha  occ. eigenvalues --   -1.12831  -1.07224  -1.06570  -1.01206  -1.00877
 Alpha  occ. eigenvalues --   -0.95586  -0.91467  -0.86282  -0.85572  -0.83427
 Alpha  occ. eigenvalues --   -0.78447  -0.76130  -0.74176  -0.70762  -0.69216
 Alpha  occ. eigenvalues --   -0.68611  -0.68355  -0.67194  -0.65038  -0.63802
 Alpha  occ. eigenvalues --   -0.62752  -0.61230  -0.60575  -0.59640  -0.59483
 Alpha  occ. eigenvalues --   -0.56633  -0.54421  -0.53631  -0.52709  -0.46865
 Alpha  occ. eigenvalues --   -0.46276  -0.44041
 Alpha virt. eigenvalues --   -0.26226  -0.15225  -0.13498  -0.12423  -0.11211
 Alpha virt. eigenvalues --   -0.10159  -0.09269  -0.08087  -0.07784  -0.07460
 Alpha virt. eigenvalues --   -0.07214  -0.07043  -0.05664  -0.05618  -0.05445

 Mulliken charges:
               1
     1  C   -0.007110
     2  C   -0.485797
     3  C   -0.370797
     4  C    0.027602
     5  C    0.149592
     6  C   -0.381435
     7  C   -0.227227
     8  C    0.125704
     9  C   -0.524106
    10  C   -0.183024
    11  C    0.143529
    12  C    0.533972
    13  C   -0.631873
    14  C    0.188785
    15  H    0.231803
    16  H    0.254737
    17  H    0.233013
    18  H    0.243702
    19  H    0.198461
    20  H    0.207645
    21  H    0.261037
    22  H    0.260440
    23  H    0.246297
    24  H    0.252525
    25  H    0.252525
 Sum of Mulliken charges =   1.00000

 Dipole moment (field-independent basis, Debye):
    X=              0.8939    Y=              1.1353    Z=              0.0000  Tot=              1.4450
 Quadrupole moment (field-independent basis, Debye-Ang):
   XX=            -52.3349   YY=            -35.4568   ZZ=            -84.0652
   XY=              9.6572   XZ=             -0.0000   YZ=              0.0000

 Normal termination of Gaussian 16 at Wed Jul 27 12:09:28 2022.
