 Gaussian 16, Revision C.01,
 Gaussian 16:  ES64L-G16RevC.01  3-Jul-2019

 ---------------------------------------------------------------
 #n M062X/6-311++G(d,p) TD(NStates=1) EmpiricalDispersion=GD3 SP
 ---------------------------------------------------------------

 ----
 SP_4
 ----
 Symbolic Z-matrix:
 Charge =  1 Multiplicity = 1

                         Standard orientation:
 ---------------------------------------------------------------------
 Center     Atomic      Atomic             Coordinates (Angstroms)
 Number     Number       Type             X           Y           Z
 ---------------------------------------------------------------------
      1          6           0       -2.424898   -1.458815    0.000000
      2          6           0       -2.377783   -2.812362    0.000000
      3          6           0       -1.171338   -3.542242    0.000000
      4          6           0       -0.024006   -2.915997    0.000000
      5          6           0        2.387529    1.380308    0.000000
      6          6           0        2.438503    2.881401    0.000000
      7          6           0        1.291292    3.617699    0.000000
      8          6           0        0.085445    2.848337    0.000000
      9          6           0       -1.230011    0.776022    0.000000
     10          6           0        1.223081   -0.739802    0.000000
     11          6           0       -1.220810   -0.807831    0.000000
     12          6           0       -0.082029   -1.459176    0.000000
     13          6           0        0.000000    1.402072    0.000000
     14          6           0        1.280128    0.611792    0.000000
     15          1           0       -3.294109   -0.806544    0.000000
     16          1           0       -3.351998   -3.281886    0.000000
     17          1           0       -1.111591   -4.619290    0.000000
     18          1           0        0.856751   -3.547000    0.000000
     19          1           0        2.101727   -1.379531    0.000000
     20          1           0        3.279617    0.752887    0.000000
     21          1           0        3.368846    3.439026    0.000000
     22          1           0        1.372242    4.698437    0.000000
     23          1           0       -0.795288    3.496697    0.000000
     24          1           0       -1.738407    1.279386    0.859585
     25          1           0       -1.738407    1.279386   -0.859585
 ---------------------------------------------------------------------

 SCF Done:  E(RM062X) =  -539.678185644     A.U. after   15 cycles

 Excitation energies and oscillator strengths:

 Excited State   1:      Singlet-A'     2.4388 eV  508.39 nm  f=0.0314  <S**2>=0.000
      47 -> 48         0.70374
 This state for optimization and/or second-order correction.
 Total Energy, E(TD-HF/TD-DFT) =  -539.588563044
 Copying the excited state density for this state as the 1-particle RhoCI density.

 The electronic state is 1-A'.
 Alpha  occ. eigenvalues --  -10.77608 -10.74226 -10.72725 -10.72424 -10.72411
 Alpha  occ. eigenvalues --  -10.72285 -10.71509 -10.71269 -10.70784 -10.70672
 Alpha  occ. eigenvalues --  -10.70349 -10.70020 -10.69123 -10.68427  -1.16913
 Alpha  occ. eigenvalues --   -1.12976  -1.06993  -1.06558  -1.01709  -1.01262
 Alpha  occ. eigenvalues --   -0.95186  -0.91227  -0.86508  -0.85593  -0.83454
 Alpha  occ. eigenvalues --   -0.78274  -0.76281  -0.74080  -0.70422  -0.69345
 Alpha  occ. eigenvalues --   -0.68531  -0.68321  -0.67505  -0.65011  -0.64451
 Alpha  occ. eigenvalues --   -0.62478  -0.60951  -0.60951  -0.59309  -0.58997
 Alpha  occ. eigenvalues --   -0.56866  -0.54304  -0.53960  -0.52584  -0.47696
 Alpha  occ. eigenvalues --   -0.46254  -0.43294
 Alpha virt. eigenvalues --   -0.26170  -0.15345  -0.13605  -0.12371  -0.11203
 Alpha virt. eigenvalues --   -0.10152  -0.09243  -0.08087  -0.07778  -0.07468
 Alpha virt. eigenvalues --   -0.07212  -0.07066  -0.05685  -0.05614  -0.05431

 Mulliken charges:
               1
     1  C   -0.018026
     2  C   -0.485269
     3  C   -0.376432
     4  C    0.047172
     5  C    0.144733
     6  C   -0.380418
     7  C   -0.231529
     8  C    0.149868
     9  C   -0.508679
    10  C   -0.180095
    11  C    0.126647
    12  C    0.542262
    13  C   -0.622607
    14  C    0.151920
    15  H    0.232552
    16  H    0.257801
    17  H    0.233116
    18  H    0.245463
    19  H    0.197195
    20  H    0.204008
    21  H    0.258126
    22  H    0.257523
    23  H    0.243085
    24  H    0.255791
    25  H    0.255791
 Sum of Mulliken charges =   1.00000

 Dipole moment (field-independent basis, Debye):
    X=              0.5082    Y=              0.5105    Z=              0.0000  Tot=              0.7203
 Quadrupole moment (field-independent basis, Debye-Ang):
   XX=            -52.6567   YY=            -35.3124   ZZ=            -84.0701
   XY=              9.3818   XZ=             -0.0000   YZ=              0.0000

 Normal termination of Gaussian 16 at Wed Jul 27 12:10:58 2022.
