 Gaussian 16, Revision C.01,
 Gaussian 16:  ES64L-G16RevC.01  3-Jul-2019

 ---------------------------------------------------------------
 #n M062X/6-311++G(d,p) TD(NStates=1) EmpiricalDispersion=GD3 SP
 ---------------------------------------------------------------

 ----
 SP_4
 ----
 Symbolic Z-matrix:
 Charge =  1 Multiplicity = 1

                         Standard orientation:
 ---------------------------------------------------------------------
 Center     Atomic      Atomic             Coordinates (Angstroms)
 Number     Number       Type             X           Y           Z
 ---------------------------------------------------------------------
      1          6           0       -2.398954   -1.448595    0.000000
      2          6           0       -2.326414   -2.806239    0.000000
      3          6           0       -1.109886   -3.551155    0.000000
      4          6           0       -0.009664   -2.959256    0.000000
      5          6           0        2.343714    1.369829    0.000000
      6          6           0        2.398976    2.929542    0.000000
      7          6           0        1.269419    3.665421    0.000000
      8          6           0        0.080939    2.876160    0.000000
      9          6           0       -1.227800    0.780724    0.000000
     10          6           0        1.199218   -0.782010    0.000000
     11          6           0       -1.243394   -0.821633    0.000000
     12          6           0       -0.079206   -1.476834    0.000000
     13          6           0        0.000000    1.375001    0.000000
     14          6           0        1.264832    0.605678    0.000000
     15          1           0       -3.283658   -0.821575    0.000000
     16          1           0       -3.299029   -3.281633    0.000000
     17          1           0       -1.074791   -4.627758    0.000000
     18          1           0        0.886435   -3.564927    0.000000
     19          1           0        2.086323   -1.408577    0.000000
     20          1           0        3.251120    0.767820    0.000000
     21          1           0        3.341736    3.465935    0.000000
     22          1           0        1.344480    4.745711    0.000000
     23          1           0       -0.815259    3.499188    0.000000
     24          1           0       -1.704020    1.343006    0.859585
     25          1           0       -1.704020    1.343006   -0.859585
 ---------------------------------------------------------------------

 SCF Done:  E(RM062X) =  -539.631153521     A.U. after   16 cycles

 Excitation energies and oscillator strengths:

 Excited State   1:      Singlet-A'     2.0624 eV  601.17 nm  f=0.0262  <S**2>=0.000
      47 -> 48         0.70471
 This state for optimization and/or second-order correction.
 Total Energy, E(TD-HF/TD-DFT) =  -539.555361991
 Copying the excited state density for this state as the 1-particle RhoCI density.

 The electronic state is 1-A'.
 Alpha  occ. eigenvalues --  -10.77669 -10.73748 -10.73270 -10.72924 -10.71844
 Alpha  occ. eigenvalues --  -10.71836 -10.71673 -10.71525 -10.70463 -10.70331
 Alpha  occ. eigenvalues --  -10.70194 -10.70086 -10.69451 -10.68611  -1.17494
 Alpha  occ. eigenvalues --   -1.13219  -1.06897  -1.06524  -1.03296  -1.01420
 Alpha  occ. eigenvalues --   -0.94525  -0.90574  -0.87116  -0.85539  -0.83382
 Alpha  occ. eigenvalues --   -0.77811  -0.76759  -0.73889  -0.69947  -0.69738
 Alpha  occ. eigenvalues --   -0.68225  -0.68197  -0.68042  -0.65795  -0.64836
 Alpha  occ. eigenvalues --   -0.61818  -0.61633  -0.60382  -0.58600  -0.57992
 Alpha  occ. eigenvalues --   -0.57518  -0.54591  -0.53455  -0.52361  -0.49688
 Alpha  occ. eigenvalues --   -0.46287  -0.41528
 Alpha virt. eigenvalues --   -0.26106  -0.15548  -0.13930  -0.12070  -0.11224
 Alpha virt. eigenvalues --   -0.10163  -0.09289  -0.08025  -0.07662  -0.07520
 Alpha virt. eigenvalues --   -0.07244  -0.07039  -0.05752  -0.05592  -0.05448

 Mulliken charges:
               1
     1  C   -0.032314
     2  C   -0.511025
     3  C   -0.371318
     4  C   -0.387703
     5  C    0.228553
     6  C   -0.376189
     7  C   -0.347096
     8  C    0.315017
     9  C   -0.447434
    10  C   -0.071467
    11  C   -0.495909
    12  C    1.202576
    13  C   -0.629585
    14  C    0.298933
    15  H    0.231236
    16  H    0.264436
    17  H    0.235227
    18  H    0.232623
    19  H    0.191228
    20  H    0.198226
    21  H    0.252924
    22  H    0.248554
    23  H    0.242072
    24  H    0.264217
    25  H    0.264217
 Sum of Mulliken charges =   1.00000

 Dipole moment (field-independent basis, Debye):
    X=             -0.3099    Y=             -0.7185    Z=             -0.0000  Tot=              0.7825
 Quadrupole moment (field-independent basis, Debye-Ang):
   XX=            -53.2322   YY=            -34.7799   ZZ=            -84.0356
   XY=              8.9986   XZ=              0.0000   YZ=             -0.0000

 Normal termination of Gaussian 16 at Wed Jul 27 12:14:06 2022.
