 Gaussian 16, Revision C.01,
 Gaussian 16:  ES64L-G16RevC.01  3-Jul-2019

 ---------------------------------------------------------------
 #n M062X/6-311++G(d,p) TD(NStates=1) EmpiricalDispersion=GD3 SP
 ---------------------------------------------------------------

 ----
 SP_5
 ----
 Symbolic Z-matrix:
 Charge =  1 Multiplicity = 1

                         Standard orientation:
 ---------------------------------------------------------------------
 Center     Atomic      Atomic             Coordinates (Angstroms)
 Number     Number       Type             X           Y           Z
 ---------------------------------------------------------------------
      1          6           0        0.164604    2.874471    0.000000
      2          6           0       -0.950120    3.610813    0.000000
      3          6           0       -2.206760    3.026556    0.000000
      4          6           0       -2.336306    1.640874    0.000000
      5          6           0       -0.224629   -2.809999    0.000000
      6          6           0        0.919841   -3.644860    0.000000
      7          6           0        2.191416   -3.092582    0.000000
      8          6           0        2.265002   -1.646784    0.000000
      9          6           0        1.332862    0.580684    0.000000
     10          6           0       -1.262003   -0.675270    0.000000
     11          6           0        0.000000    1.422868    0.000000
     12          6           0       -1.124183    0.892813    0.000000
     13          6           0        1.203949   -0.800674    0.000000
     14          6           0       -0.240040   -1.425814    0.000000
     15          1           0        1.225990    3.149866    0.000000
     16          1           0       -0.763209    4.675120    0.000000
     17          1           0       -3.165073    3.534140    0.000000
     18          1           0       -3.384288    1.338419    0.000000
     19          1           0       -2.307117   -0.992271    0.000000
     20          1           0       -1.277954   -3.124648    0.000000
     21          1           0        0.916820   -4.733830    0.000000
     22          1           0        3.024826   -3.790765    0.000000
     23          1           0        3.331570   -1.358851    0.000000
     24          1           0        1.998321    0.792124    0.859585
     25          1           0        1.998321    0.792124   -0.859585
 ---------------------------------------------------------------------

 SCF Done:  E(RM062X) =  -539.653562773     A.U. after   15 cycles

 Excitation energies and oscillator strengths:

 Excited State   1:      Singlet-A'     2.6740 eV  463.67 nm  f=0.0219  <S**2>=0.000
      45 -> 48        -0.13792
      47 -> 48         0.68990
 This state for optimization and/or second-order correction.
 Total Energy, E(TD-HF/TD-DFT) =  -539.555296358
 Copying the excited state density for this state as the 1-particle RhoCI density.

 The electronic state is 1-A'.
 Alpha  occ. eigenvalues --  -10.76341 -10.75037 -10.74463 -10.74428 -10.72878
 Alpha  occ. eigenvalues --  -10.71713 -10.71453 -10.70961 -10.70766 -10.70379
 Alpha  occ. eigenvalues --  -10.69026 -10.68485 -10.67937 -10.67839  -1.16947
 Alpha  occ. eigenvalues --   -1.12677  -1.08146  -1.07053  -1.01129  -0.99562
 Alpha  occ. eigenvalues --   -0.96193  -0.92167  -0.85810  -0.85271  -0.82984
 Alpha  occ. eigenvalues --   -0.78671  -0.76189  -0.74245  -0.71817  -0.69405
 Alpha  occ. eigenvalues --   -0.68521  -0.68299  -0.66206  -0.65389  -0.63333
 Alpha  occ. eigenvalues --   -0.62038  -0.61463  -0.60794  -0.59933  -0.59718
 Alpha  occ. eigenvalues --   -0.56290  -0.54183  -0.53198  -0.51572  -0.47003
 Alpha  occ. eigenvalues --   -0.46577  -0.43711
 Alpha virt. eigenvalues --   -0.26511  -0.14984  -0.13149  -0.12112  -0.11305
 Alpha virt. eigenvalues --   -0.10250  -0.09473  -0.08063  -0.07661  -0.07495
 Alpha virt. eigenvalues --   -0.07246  -0.06707  -0.05658  -0.05607  -0.05587

 Mulliken charges:
               1
     1  C    0.018689
     2  C   -0.514878
     3  C   -0.356740
     4  C   -0.044085
     5  C    0.175904
     6  C   -0.363276
     7  C   -0.192027
     8  C    0.079755
     9  C   -0.576878
    10  C   -0.210438
    11  C    0.205139
    12  C    0.516967
    13  C   -0.635237
    14  C    0.246878
    15  H    0.227339
    16  H    0.247936
    17  H    0.229372
    18  H    0.243476
    19  H    0.198435
    20  H    0.212937
    21  H    0.270740
    22  H    0.268994
    23  H    0.255974
    24  H    0.247512
    25  H    0.247512
 Sum of Mulliken charges =   1.00000

 Dipole moment (field-independent basis, Debye):
    X=              1.3135    Y=             -3.1658    Z=             -0.0000  Tot=              3.4275
 Quadrupole moment (field-independent basis, Debye-Ang):
   XX=            -49.9435   YY=            -37.0585   ZZ=            -83.9458
   XY=            -11.7840   XZ=              0.0000   YZ=             -0.0000

 Normal termination of Gaussian 16 at Wed Jul 27 12:15:37 2022.
