 Gaussian 16, Revision C.01,
 Gaussian 16:  ES64L-G16RevC.01  3-Jul-2019

 ---------------------------------------------------------------
 #n M062X/6-311++G(d,p) TD(NStates=1) EmpiricalDispersion=GD3 SP
 ---------------------------------------------------------------

 ----
 SP_3
 ----
 Symbolic Z-matrix:
 Charge =  1 Multiplicity = 1

                         Standard orientation:
 ---------------------------------------------------------------------
 Center     Atomic      Atomic             Coordinates (Angstroms)
 Number     Number       Type             X           Y           Z
 ---------------------------------------------------------------------
      1          6           0       -2.416366   -1.484215    0.000000
      2          6           0       -2.375472   -2.846302    0.000000
      3          6           0       -1.163966   -3.551641    0.000000
      4          6           0        0.000087   -2.890914    0.000000
      5          6           0        2.397670    1.412881    0.000000
      6          6           0        2.425976    2.882684    0.000000
      7          6           0        1.259754    3.602823    0.000000
      8          6           0        0.059093    2.843077    0.000000
      9          6           0       -1.243507    0.753278    0.000000
     10          6           0        1.235522   -0.718475    0.000000
     11          6           0       -1.210754   -0.802417    0.000000
     12          6           0       -0.046782   -1.451930    0.000000
     13          6           0        0.000000    1.412831    0.000000
     14          6           0        1.269900    0.646284    0.000000
     15          1           0       -3.305302   -0.862463    0.000000
     16          1           0       -3.336242   -3.340403    0.000000
     17          1           0       -1.102275   -4.629195    0.000000
     18          1           0        0.897433   -3.496521    0.000000
     19          1           0        2.132433   -1.327986    0.000000
     20          1           0        3.304582    0.811933    0.000000
     21          1           0        3.354370    3.441485    0.000000
     22          1           0        1.312682    4.683889    0.000000
     23          1           0       -0.839598    3.459839    0.000000
     24          1           0       -1.782511    1.205819    0.859585
     25          1           0       -1.782511    1.205819   -0.859585
 ---------------------------------------------------------------------

 SCF Done:  E(RM062X) =  -539.716993087     A.U. after   15 cycles

 Excitation energies and oscillator strengths:

 Excited State   1:      Singlet-A'     2.6136 eV  474.38 nm  f=0.0318  <S**2>=0.000
      47 -> 48         0.70188
 This state for optimization and/or second-order correction.
 Total Energy, E(TD-HF/TD-DFT) =  -539.620944819
 Copying the excited state density for this state as the 1-particle RhoCI density.

 The electronic state is 1-A'.
 Alpha  occ. eigenvalues --  -10.77610 -10.74024 -10.72545 -10.72499 -10.72454
 Alpha  occ. eigenvalues --  -10.72269 -10.71584 -10.71120 -10.70634 -10.70489
 Alpha  occ. eigenvalues --  -10.70345 -10.70290 -10.69289 -10.68707  -1.16678
 Alpha  occ. eigenvalues --   -1.12727  -1.06996  -1.06222  -1.01331  -1.00859
 Alpha  occ. eigenvalues --   -0.95483  -0.91216  -0.86419  -0.85721  -0.83609
 Alpha  occ. eigenvalues --   -0.78369  -0.76142  -0.74231  -0.70283  -0.69106
 Alpha  occ. eigenvalues --   -0.68575  -0.68230  -0.67720  -0.64954  -0.64241
 Alpha  occ. eigenvalues --   -0.62783  -0.61307  -0.60536  -0.59458  -0.59227
 Alpha  occ. eigenvalues --   -0.56842  -0.54688  -0.54282  -0.52550  -0.47052
 Alpha  occ. eigenvalues --   -0.46240  -0.43909
 Alpha virt. eigenvalues --   -0.26146  -0.15105  -0.13722  -0.12555  -0.11192
 Alpha virt. eigenvalues --   -0.10123  -0.09240  -0.08043  -0.07858  -0.07461
 Alpha virt. eigenvalues --   -0.07207  -0.07104  -0.05660  -0.05601  -0.05390

 Mulliken charges:
               1
     1  C   -0.007177
     2  C   -0.451141
     3  C   -0.371172
     4  C    0.072843
     5  C    0.149441
     6  C   -0.392756
     7  C   -0.254896
     8  C    0.117410
     9  C   -0.508915
    10  C   -0.183371
    11  C    0.069907
    12  C    0.546240
    13  C   -0.635329
    14  C    0.209646
    15  H    0.235399
    16  H    0.256511
    17  H    0.237540
    18  H    0.241561
    19  H    0.196709
    20  H    0.210398
    21  H    0.257016
    22  H    0.257612
    23  H    0.242626
    24  H    0.251949
    25  H    0.251949
 Sum of Mulliken charges =   1.00000

 Dipole moment (field-independent basis, Debye):
    X=              0.5218    Y=              0.5285    Z=             -0.0000  Tot=              0.7427
 Quadrupole moment (field-independent basis, Debye-Ang):
   XX=            -52.0148   YY=            -35.6704   ZZ=            -84.1031
   XY=              9.7116   XZ=              0.0000   YZ=             -0.0000

 Normal termination of Gaussian 16 at Wed Jul 27 12:00:00 2022.
