 Gaussian 16, Revision C.01,
 Gaussian 16:  ES64L-G16RevC.01  3-Jul-2019

 ---------------------------------------------------------------
 #n M062X/6-311++G(d,p) TD(NStates=1) EmpiricalDispersion=GD3 SP
 ---------------------------------------------------------------

 ----
 SP_1
 ----
 Symbolic Z-matrix:
 Charge =  1 Multiplicity = 1

                         Standard orientation:
 ---------------------------------------------------------------------
 Center     Atomic      Atomic             Coordinates (Angstroms)
 Number     Number       Type             X           Y           Z
 ---------------------------------------------------------------------
      1          6           0       -2.372829   -1.523934    0.000000
      2          6           0       -2.318370   -2.907489    0.000000
      3          6           0       -1.087605   -3.578558    0.000000
      4          6           0        0.061691   -2.883058    0.000000
      5          6           0        2.373108    1.467499    0.000000
      6          6           0        2.361255    2.932437    0.000000
      7          6           0        1.175432    3.619314    0.000000
      8          6           0        0.001848    2.859470    0.000000
      9          6           0       -1.267225    0.712005    0.000000
     10          6           0        1.236440   -0.718085    0.000000
     11          6           0       -1.213744   -0.805425    0.000000
     12          6           0        0.026296   -1.453159    0.000000
     13          6           0        0.000000    1.407753    0.000000
     14          6           0        1.232467    0.708210    0.000000
     15          1           0       -3.314315   -0.989836    0.000000
     16          1           0       -3.249242   -3.455745    0.000000
     17          1           0       -1.046706   -4.657485    0.000000
     18          1           0        1.005512   -3.411381    0.000000
     19          1           0        2.176251   -1.252886    0.000000
     20          1           0        3.322871    0.945953    0.000000
     21          1           0        3.298933    3.472638    0.000000
     22          1           0        1.166540    4.698934    0.000000
     23          1           0       -0.945761    3.386457    0.000000
     24          1           0       -1.833337    1.120735    0.859585
     25          1           0       -1.833337    1.120735   -0.859585
 ---------------------------------------------------------------------

 SCF Done:  E(RM062X) =  -539.744758440     A.U. after   16 cycles

 Excitation energies and oscillator strengths:

 Excited State   1:      Singlet-A'     2.5809 eV  480.39 nm  f=0.0212  <S**2>=0.000
      47 -> 48         0.70329
 This state for optimization and/or second-order correction.
 Total Energy, E(TD-HF/TD-DFT) =  -539.649912352
 Copying the excited state density for this state as the 1-particle RhoCI density.

 The electronic state is 1-A'.
 Alpha  occ. eigenvalues --  -10.77631 -10.73507 -10.73030 -10.72797 -10.72026
 Alpha  occ. eigenvalues --  -10.71806 -10.71365 -10.71225 -10.71043 -10.70254
 Alpha  occ. eigenvalues --  -10.69978 -10.69961 -10.69644 -10.69540  -1.16613
 Alpha  occ. eigenvalues --   -1.12556  -1.06857  -1.05896  -1.01408  -1.00707
 Alpha  occ. eigenvalues --   -0.95392  -0.90975  -0.86514  -0.85860  -0.83799
 Alpha  occ. eigenvalues --   -0.78262  -0.76221  -0.74290  -0.69585  -0.69358
 Alpha  occ. eigenvalues --   -0.68451  -0.68123  -0.68087  -0.65248  -0.64463
 Alpha  occ. eigenvalues --   -0.62633  -0.61456  -0.60605  -0.59151  -0.59016
 Alpha  occ. eigenvalues --   -0.57038  -0.55294  -0.54458  -0.52405  -0.47579
 Alpha  occ. eigenvalues --   -0.46159  -0.43520
 Alpha virt. eigenvalues --   -0.26095  -0.14841  -0.13976  -0.12720  -0.11188
 Alpha virt. eigenvalues --   -0.10095  -0.09250  -0.07967  -0.07908  -0.07488
 Alpha virt. eigenvalues --   -0.07210  -0.07134  -0.05655  -0.05576  -0.05350

 Mulliken charges:
               1
     1  C    0.052212
     2  C   -0.431315
     3  C   -0.434100
     4  C   -0.044055
     5  C    0.055522
     6  C   -0.434942
     7  C   -0.384200
     8  C    0.145346
     9  C   -0.343097
    10  C    0.077749
    11  C   -0.650899
    12  C    0.804380
    13  C   -0.616162
    14  C    0.584662
    15  H    0.236467
    16  H    0.261092
    17  H    0.247879
    18  H    0.227339
    19  H    0.189500
    20  H    0.215358
    21  H    0.248738
    22  H    0.251769
    23  H    0.237436
    24  H    0.251660
    25  H    0.251660
 Sum of Mulliken charges =   1.00000

 Dipole moment (field-independent basis, Debye):
    X=             -0.2226    Y=             -0.7583    Z=              0.0000  Tot=              0.7903
 Quadrupole moment (field-independent basis, Debye-Ang):
   XX=            -51.4215   YY=            -35.9525   ZZ=            -84.1261
   XY=              9.9981   XZ=             -0.0000   YZ=              0.0000

 Normal termination of Gaussian 16 at Wed Jul 27 11:41:28 2022.
