 Gaussian 16, Revision C.01,
 Gaussian 16:  ES64L-G16RevC.01  3-Jul-2019

 ---------------------------------------------------------------
 #n M062X/6-311++G(d,p) TD(NStates=1) EmpiricalDispersion=GD3 SP
 ---------------------------------------------------------------

 ----
 SP_2
 ----
 Symbolic Z-matrix:
 Charge =  1 Multiplicity = 1

                         Standard orientation:
 ---------------------------------------------------------------------
 Center     Atomic      Atomic             Coordinates (Angstroms)
 Number     Number       Type             X           Y           Z
 ---------------------------------------------------------------------
      1          6           0       -2.381602   -1.499153    0.000000
      2          6           0       -2.321088   -2.873891    0.000000
      3          6           0       -1.094680   -3.569460    0.000000
      4          6           0        0.038641   -2.908645    0.000000
      5          6           0        2.363499    1.434993    0.000000
      6          6           0        2.373353    2.931777    0.000000
      7          6           0        1.206018    3.635093    0.000000
      8          6           0        0.027781    2.865272    0.000000
      9          6           0       -1.254449    0.734918    0.000000
     10          6           0        1.224376   -0.739392    0.000000
     11          6           0       -1.223375   -0.811077    0.000000
     12          6           0       -0.008573   -1.461504    0.000000
     13          6           0        0.000000    1.396754    0.000000
     14          6           0        1.243624    0.674309    0.000000
     15          1           0       -3.304650   -0.933936    0.000000
     16          1           0       -3.266127   -3.398157    0.000000
     17          1           0       -1.055601   -4.647574    0.000000
     18          1           0        0.966963   -3.462849    0.000000
     19          1           0        2.147102   -1.304905    0.000000
     20          1           0        3.299565    0.886555    0.000000
     21          1           0        3.312625    3.470816    0.000000
     22          1           0        1.224975    4.715304    0.000000
     23          1           0       -0.903195    3.424389    0.000000
     24          1           0       -1.791406    1.195196    0.859585
     25          1           0       -1.791406    1.195196   -0.859585
 ---------------------------------------------------------------------

 SCF Done:  E(RM062X) =  -539.720010288     A.U. after   16 cycles

 Excitation energies and oscillator strengths:

 Excited State   1:      Singlet-A'     2.4131 eV  513.80 nm  f=0.0222  <S**2>=0.000
      47 -> 48         0.70358
 This state for optimization and/or second-order correction.
 Total Energy, E(TD-HF/TD-DFT) =  -539.631331263
 Copying the excited state density for this state as the 1-particle RhoCI density.

 The electronic state is 1-A'.
 Alpha  occ. eigenvalues --  -10.77647 -10.73423 -10.73229 -10.72855 -10.71955
 Alpha  occ. eigenvalues --  -10.71835 -10.71407 -10.71153 -10.71033 -10.70229
 Alpha  occ. eigenvalues --  -10.70133 -10.69829 -10.69787 -10.69250  -1.16821
 Alpha  occ. eigenvalues --   -1.12714  -1.06755  -1.06116  -1.01743  -1.01103
 Alpha  occ. eigenvalues --   -0.95060  -0.90883  -0.86650  -0.85787  -0.83734
 Alpha  occ. eigenvalues --   -0.78129  -0.76390  -0.74154  -0.69651  -0.69376
 Alpha  occ. eigenvalues --   -0.68484  -0.68102  -0.68093  -0.65490  -0.64636
 Alpha  occ. eigenvalues --   -0.62334  -0.61071  -0.60972  -0.58923  -0.58791
 Alpha  occ. eigenvalues --   -0.57226  -0.55130  -0.54222  -0.52379  -0.48242
 Alpha  occ. eigenvalues --   -0.46204  -0.42881
 Alpha virt. eigenvalues --   -0.26096  -0.15064  -0.13892  -0.12590  -0.11195
 Alpha virt. eigenvalues --   -0.10108  -0.09258  -0.07973  -0.07845  -0.07496
 Alpha virt. eigenvalues --   -0.07218  -0.07120  -0.05673  -0.05578  -0.05371

 Mulliken charges:
               1
     1  C    0.028037
     2  C   -0.457439
     3  C   -0.421849
     4  C   -0.148194
     5  C    0.107915
     6  C   -0.420713
     7  C   -0.361352
     8  C    0.190311
     9  C   -0.371039
    10  C    0.040815
    11  C   -0.643238
    12  C    0.943804
    13  C   -0.612557
    14  C    0.506409
    15  H    0.234630
    16  H    0.262340
    17  H    0.244233
    18  H    0.229604
    19  H    0.189295
    20  H    0.210352
    21  H    0.250329
    22  H    0.250696
    23  H    0.238965
    24  H    0.254323
    25  H    0.254323
 Sum of Mulliken charges =   1.00000

 Dipole moment (field-independent basis, Debye):
    X=             -0.2465    Y=             -0.7536    Z=             -0.0000  Tot=              0.7929
 Quadrupole moment (field-independent basis, Debye-Ang):
   XX=            -51.9774   YY=            -35.5272   ZZ=            -84.1065
   XY=              9.6727   XZ=             -0.0000   YZ=             -0.0000

 Normal termination of Gaussian 16 at Wed Jul 27 11:52:20 2022.
