 Gaussian 16, Revision C.01,
 Gaussian 16:  ES64L-G16RevC.01  3-Jul-2019

 ---------------------------------------------------------------
 #n M062X/6-311++G(d,p) TD(NStates=1) EmpiricalDispersion=GD3 SP
 ---------------------------------------------------------------

 ----
 SP_5
 ----
 Symbolic Z-matrix:
 Charge =  1 Multiplicity = 1

                         Standard orientation:
 ---------------------------------------------------------------------
 Center     Atomic      Atomic             Coordinates (Angstroms)
 Number     Number       Type             X           Y           Z
 ---------------------------------------------------------------------
      1          6           0       -2.446222   -1.438361    0.000000
      2          6           0       -2.405350   -2.781345    0.000000
      3          6           0       -1.209184   -3.528097    0.000000
      4          6           0       -0.055255   -2.919171    0.000000
      5          6           0        2.398981    1.352990    0.000000
      6          6           0        2.470491    2.855833    0.000000
      7          6           0        1.333625    3.608340    0.000000
      8          6           0        0.113811    2.839449    0.000000
      9          6           0       -1.217389    0.796219    0.000000
     10          6           0        1.222706   -0.740047    0.000000
     11          6           0       -1.219654   -0.806482    0.000000
     12          6           0       -0.118619   -1.457059    0.000000
     13          6           0       -0.000000    1.404995    0.000000
     14          6           0        1.297521    0.580135    0.000000
     15          1           0       -3.287271   -0.743424    0.000000
     16          1           0       -3.393379   -3.223175    0.000000
     17          1           0       -1.139010   -4.605160    0.000000
     18          1           0        0.800648   -3.587815    0.000000
     19          1           0        2.078284   -1.416187    0.000000
     20          1           0        3.267973    0.686778    0.000000
     21          1           0        3.396824    3.423061    0.000000
     22          1           0        1.445510    4.688509    0.000000
     23          1           0       -0.740522    3.531626    0.000000
     24          1           0       -1.710917    1.320697    0.859585
     25          1           0       -1.710917    1.320697   -0.859585
 ---------------------------------------------------------------------

 SCF Done:  E(RM062X) =  -539.644292345     A.U. after   16 cycles

 Excitation energies and oscillator strengths:

 Excited State   1:      Singlet-A'     2.4350 eV  509.18 nm  f=0.0347  <S**2>=0.000
      47 -> 48         0.70318
 This state for optimization and/or second-order correction.
 Total Energy, E(TD-HF/TD-DFT) =  -539.554809014
 Copying the excited state density for this state as the 1-particle RhoCI density.

 The electronic state is 1-A'.
 Alpha  occ. eigenvalues --  -10.77417 -10.74650 -10.73387 -10.72563 -10.72150
 Alpha  occ. eigenvalues --  -10.72012 -10.71790 -10.71326 -10.71091 -10.71079
 Alpha  occ. eigenvalues --  -10.69659 -10.69582 -10.68814 -10.68056  -1.17031
 Alpha  occ. eigenvalues --   -1.13128  -1.07380  -1.06842  -1.01629  -1.01267
 Alpha  occ. eigenvalues --   -0.95313  -0.91508  -0.86343  -0.85414  -0.83252
 Alpha  occ. eigenvalues --   -0.78360  -0.76262  -0.74021  -0.70874  -0.69461
 Alpha  occ. eigenvalues --   -0.68616  -0.68487  -0.66957  -0.65015  -0.63997
 Alpha  occ. eigenvalues --   -0.62490  -0.61007  -0.60959  -0.59540  -0.59096
 Alpha  occ. eigenvalues --   -0.56605  -0.53923  -0.53318  -0.52760  -0.47509
 Alpha  occ. eigenvalues --   -0.46255  -0.43456
 Alpha virt. eigenvalues --   -0.26256  -0.15467  -0.13352  -0.12235  -0.11226
 Alpha virt. eigenvalues --   -0.10197  -0.09270  -0.08151  -0.07712  -0.07470
 Alpha virt. eigenvalues --   -0.07219  -0.06977  -0.05695  -0.05636  -0.05497

 Mulliken charges:
               1
     1  C   -0.013582
     2  C   -0.516971
     3  C   -0.376775
     4  C    0.007200
     5  C    0.149899
     6  C   -0.366612
     7  C   -0.204535
     8  C    0.160399
     9  C   -0.530810
    10  C   -0.187180
    11  C    0.178842
    12  C    0.530217
    13  C   -0.615214
    14  C    0.140651
    15  H    0.228698
    16  H    0.256054
    17  H    0.228202
    18  H    0.247833
    19  H    0.198546
    20  H    0.201610
    21  H    0.261709
    22  H    0.260509
    23  H    0.246683
    24  H    0.257314
    25  H    0.257314
 Sum of Mulliken charges =   1.00000

 Dipole moment (field-independent basis, Debye):
    X=              0.8791    Y=              1.1008    Z=             -0.0000  Tot=              1.4088
 Quadrupole moment (field-independent basis, Debye-Ang):
   XX=            -53.0175   YY=            -35.1322   ZZ=            -84.0258
   XY=              9.3253   XZ=              0.0000   YZ=             -0.0000

 Normal termination of Gaussian 16 at Wed Jul 27 12:20:36 2022.
