 Gaussian 16, Revision C.01,
 Gaussian 16:  ES64L-G16RevC.01  3-Jul-2019

 ---------------------------------------------------------------
 #n M062X/6-311++G(d,p) TD(NStates=1) EmpiricalDispersion=GD3 SP
 ---------------------------------------------------------------

 ----
 SP_3
 ----
 Symbolic Z-matrix:
 Charge =  1 Multiplicity = 1

                         Standard orientation:
 ---------------------------------------------------------------------
 Center     Atomic      Atomic             Coordinates (Angstroms)
 Number     Number       Type             X           Y           Z
 ---------------------------------------------------------------------
      1          6           0       -2.429341   -1.489437    0.000000
      2          6           0       -2.401111   -2.849404    0.000000
      3          6           0       -1.194510   -3.547156    0.000000
      4          6           0       -0.006778   -2.869325    0.000000
      5          6           0        2.419610    1.418140    0.000000
      6          6           0        2.445499    2.858709    0.000000
      7          6           0        1.270364    3.579080    0.000000
      8          6           0        0.061133    2.829231    0.000000
      9          6           0       -1.244729    0.750904    0.000000
     10          6           0        1.247618   -0.697376    0.000000
     11          6           0       -1.199370   -0.795642    0.000000
     12          6           0       -0.048063   -1.443212    0.000000
     13          6           0        0.000000    1.426354    0.000000
     14          6           0        1.277632    0.649419    0.000000
     15          1           0       -3.310629   -0.855065    0.000000
     16          1           0       -3.362724   -3.340663    0.000000
     17          1           0       -1.120438   -4.624962    0.000000
     18          1           0        0.882976   -3.487581    0.000000
     19          1           0        2.140413   -1.313466    0.000000
     20          1           0        3.318945    0.804511    0.000000
     21          1           0        3.367681    3.428196    0.000000
     22          1           0        1.326180    4.660454    0.000000
     23          1           0       -0.829926    3.458646    0.000000
     24          1           0       -1.800105    1.174106    0.859585
     25          1           0       -1.800105    1.174106   -0.859585
 ---------------------------------------------------------------------

 SCF Done:  E(RM062X) =  -539.723481695     A.U. after   15 cycles

 Excitation energies and oscillator strengths:

 Excited State   1:      Singlet-A'     2.7524 eV  450.46 nm  f=0.0366  <S**2>=0.000
      45 -> 48         0.12406
      47 -> 48         0.69357
 This state for optimization and/or second-order correction.
 Total Energy, E(TD-HF/TD-DFT) =  -539.622334208
 Copying the excited state density for this state as the 1-particle RhoCI density.

 The electronic state is 1-A'.
 Alpha  occ. eigenvalues --  -10.77439 -10.74282 -10.72908 -10.72721 -10.72340
 Alpha  occ. eigenvalues --  -10.72059 -10.71887 -10.71039 -10.70789 -10.70713
 Alpha  occ. eigenvalues --  -10.70045 -10.69657 -10.69133 -10.68582  -1.16614
 Alpha  occ. eigenvalues --   -1.12618  -1.07176  -1.06270  -1.01171  -1.00340
 Alpha  occ. eigenvalues --   -0.95804  -0.91380  -0.86272  -0.85703  -0.83559
 Alpha  occ. eigenvalues --   -0.78478  -0.76054  -0.74310  -0.70611  -0.69075
 Alpha  occ. eigenvalues --   -0.68556  -0.68252  -0.67415  -0.65055  -0.63731
 Alpha  occ. eigenvalues --   -0.62866  -0.61551  -0.60231  -0.59740  -0.59638
 Alpha  occ. eigenvalues --   -0.56624  -0.54870  -0.53871  -0.52648  -0.46504
 Alpha  occ. eigenvalues --   -0.46268  -0.44398
 Alpha virt. eigenvalues --   -0.26196  -0.14986  -0.13690  -0.12561  -0.11203
 Alpha virt. eigenvalues --   -0.10130  -0.09271  -0.08036  -0.07842  -0.07458
 Alpha virt. eigenvalues --   -0.07212  -0.07082  -0.05648  -0.05599  -0.05407

 Mulliken charges:
               1
     1  C    0.002986
     2  C   -0.452595
     3  C   -0.366255
     4  C    0.050080
     5  C    0.150609
     6  C   -0.393702
     7  C   -0.251526
     8  C    0.095883
     9  C   -0.520673
    10  C   -0.184435
    11  C    0.099333
    12  C    0.536556
    13  C   -0.648406
    14  C    0.241154
    15  H    0.234515
    16  H    0.253406
    17  H    0.237005
    18  H    0.239552
    19  H    0.197804
    20  H    0.213518
    21  H    0.259736
    22  H    0.260724
    23  H    0.245438
    24  H    0.249647
    25  H    0.249647
 Sum of Mulliken charges =   1.00000

 Dipole moment (field-independent basis, Debye):
    X=              0.8964    Y=              1.1699    Z=              0.0000  Tot=              1.4739
 Quadrupole moment (field-independent basis, Debye-Ang):
   XX=            -51.7017   YY=            -35.8116   ZZ=            -84.0943
   XY=              9.9817   XZ=             -0.0000   YZ=             -0.0000

 Normal termination of Gaussian 16 at Wed Jul 27 11:58:26 2022.
