 Gaussian 16, Revision C.01,
 Gaussian 16:  ES64L-G16RevC.01  3-Jul-2019

 ---------------------------------------------------------------
 #n M062X/6-311++G(d,p) TD(NStates=1) EmpiricalDispersion=GD3 SP
 ---------------------------------------------------------------

 ----
 SP_3
 ----
 Symbolic Z-matrix:
 Charge =  1 Multiplicity = 1

                         Standard orientation:
 ---------------------------------------------------------------------
 Center     Atomic      Atomic             Coordinates (Angstroms)
 Number     Number       Type             X           Y           Z
 ---------------------------------------------------------------------
      1          6           0        0.106189    2.861423    0.000000
      2          6           0       -1.033491    3.599613    0.000000
      3          6           0       -2.273253    2.980328    0.000000
      4          6           0       -2.364757    1.586704    0.000000
      5          6           0       -0.165179   -2.821326    0.000000
      6          6           0        0.997652   -3.621532    0.000000
      7          6           0        2.253057   -3.033884    0.000000
      8          6           0        2.310403   -1.610131    0.000000
      9          6           0        1.312882    0.623810    0.000000
     10          6           0       -1.260442   -0.675313    0.000000
     11          6           0        0.000000    1.426073    0.000000
     12          6           0       -1.167709    0.834675    0.000000
     13          6           0        1.199415   -0.796681    0.000000
     14          6           0       -0.167576   -1.431762    0.000000
     15          1           0        1.128397    3.231207    0.000000
     16          1           0       -0.907892    4.671567    0.000000
     17          1           0       -3.219213    3.504787    0.000000
     18          1           0       -3.378280    1.200922    0.000000
     19          1           0       -2.270753   -1.071103    0.000000
     20          1           0       -1.180185   -3.217645    0.000000
     21          1           0        0.974197   -4.705627    0.000000
     22          1           0        3.121640   -3.681210    0.000000
     23          1           0        3.333926   -1.229469    0.000000
     24          1           0        1.957508    0.882298    0.859585
     25          1           0        1.957508    0.882298   -0.859585
 ---------------------------------------------------------------------

 SCF Done:  E(RM062X) =  -539.722825113     A.U. after   15 cycles

 Excitation energies and oscillator strengths:

 Excited State   1:      Singlet-A'     2.7532 eV  450.34 nm  f=0.0272  <S**2>=0.000
      47 -> 48         0.69659
 This state for optimization and/or second-order correction.
 Total Energy, E(TD-HF/TD-DFT) =  -539.621648591
 Copying the excited state density for this state as the 1-particle RhoCI density.

 The electronic state is 1-A'.
 Alpha  occ. eigenvalues --  -10.77177 -10.74514 -10.73240 -10.73121 -10.72902
 Alpha  occ. eigenvalues --  -10.71622 -10.71472 -10.70969 -10.70932 -10.70914
 Alpha  occ. eigenvalues --  -10.69780 -10.69055 -10.68959 -10.68457  -1.16644
 Alpha  occ. eigenvalues --   -1.12528  -1.07352  -1.06383  -1.01078  -0.99989
 Alpha  occ. eigenvalues --   -0.95951  -0.91512  -0.86167  -0.85676  -0.83479
 Alpha  occ. eigenvalues --   -0.78510  -0.76080  -0.74351  -0.70935  -0.69170
 Alpha  occ. eigenvalues --   -0.68373  -0.68258  -0.67117  -0.65304  -0.63624
 Alpha  occ. eigenvalues --   -0.62453  -0.61718  -0.60358  -0.59962  -0.59620
 Alpha  occ. eigenvalues --   -0.56467  -0.55024  -0.53312  -0.52743  -0.46827
 Alpha  occ. eigenvalues --   -0.46233  -0.44129
 Alpha virt. eigenvalues --   -0.26264  -0.14851  -0.13677  -0.12525  -0.11228
 Alpha virt. eigenvalues --   -0.10144  -0.09328  -0.08011  -0.07791  -0.07465
 Alpha virt. eigenvalues --   -0.07225  -0.07036  -0.05643  -0.05588  -0.05438

 Mulliken charges:
               1
     1  C    0.012692
     2  C   -0.453825
     3  C   -0.361278
     4  C    0.026754
     5  C    0.152584
     6  C   -0.393607
     7  C   -0.248503
     8  C    0.073909
     9  C   -0.531371
    10  C   -0.188010
    11  C    0.126165
    12  C    0.528420
    13  C   -0.657751
    14  C    0.271127
    15  H    0.233578
    16  H    0.250458
    17  H    0.236486
    18  H    0.237524
    19  H    0.198027
    20  H    0.216625
    21  H    0.262407
    22  H    0.263898
    23  H    0.248061
    24  H    0.247814
    25  H    0.247814
 Sum of Mulliken charges =   1.00000

 Dipole moment (field-independent basis, Debye):
    X=              0.8109    Y=             -2.0366    Z=             -0.0000  Tot=              2.1921
 Quadrupole moment (field-independent basis, Debye-Ang):
   XX=            -50.1159   YY=            -37.1227   ZZ=            -84.0723
   XY=            -11.1399   XZ=             -0.0000   YZ=             -0.0000

 Normal termination of Gaussian 16 at Wed Jul 27 11:57:00 2022.
