 Gaussian 16, Revision C.01,
 Gaussian 16:  ES64L-G16RevC.01  3-Jul-2019

 ---------------------------------------------------------------
 #n M062X/6-311++G(d,p) TD(NStates=1) EmpiricalDispersion=GD3 SP
 ---------------------------------------------------------------

 ----
 SP_1
 ----
 Symbolic Z-matrix:
 Charge =  1 Multiplicity = 1

                         Standard orientation:
 ---------------------------------------------------------------------
 Center     Atomic      Atomic             Coordinates (Angstroms)
 Number     Number       Type             X           Y           Z
 ---------------------------------------------------------------------
      1          6           0       -2.385979   -1.528943    0.000000
      2          6           0       -2.344616   -2.910612    0.000000
      3          6           0       -1.119049   -3.574494    0.000000
      4          6           0        0.053729   -2.861629    0.000000
      5          6           0        2.395260    1.472684    0.000000
      6          6           0        2.381948    2.908368    0.000000
      7          6           0        1.187338    3.595560    0.000000
      8          6           0        0.004890    2.845650    0.000000
      9          6           0       -1.268281    0.709914    0.000000
     10          6           0        1.247810   -0.696949    0.000000
     11          6           0       -1.202609   -0.798054    0.000000
     12          6           0        0.024495   -1.444618    0.000000
     13          6           0        0.000000    1.421163    0.000000
     14          6           0        1.240404    0.711317    0.000000
     15          1           0       -3.320213   -0.981713    0.000000
     16          1           0       -3.276631   -3.455901    0.000000
     17          1           0       -1.066019   -4.653253    0.000000
     18          1           0        0.990319   -3.403093    0.000000
     19          1           0        2.183721   -1.238732    0.000000
     20          1           0        3.337817    0.937974    0.000000
     21          1           0        3.313163    3.458830    0.000000
     22          1           0        1.181561    4.675685    0.000000
     23          1           0       -0.935493    3.385792    0.000000
     24          1           0       -1.850130    1.089137    0.859585
     25          1           0       -1.850130    1.089137   -0.859585
 ---------------------------------------------------------------------

 SCF Done:  E(RM062X) =  -539.753949586     A.U. after   15 cycles

 Excitation energies and oscillator strengths:

 Excited State   1:      Singlet-A'     2.7519 eV  450.53 nm  f=0.0272  <S**2>=0.000
      47 -> 48         0.70298
 This state for optimization and/or second-order correction.
 Total Energy, E(TD-HF/TD-DFT) =  -539.652817806
 Copying the excited state density for this state as the 1-particle RhoCI density.

 The electronic state is 1-A'.
 Alpha  occ. eigenvalues --  -10.77669 -10.73381 -10.73122 -10.72503 -10.72364
 Alpha  occ. eigenvalues --  -10.71620 -10.71098 -10.71039 -10.71005 -10.70962
 Alpha  occ. eigenvalues --  -10.70144 -10.69856 -10.69797 -10.69382  -1.16487
 Alpha  occ. eigenvalues --   -1.12509  -1.06929  -1.05792  -1.01335  -1.00354
 Alpha  occ. eigenvalues --   -0.95678  -0.91055  -0.86437  -0.85880  -0.83798
 Alpha  occ. eigenvalues --   -0.78376  -0.76068  -0.74377  -0.69666  -0.69163
 Alpha  occ. eigenvalues --   -0.68535  -0.68163  -0.68111  -0.64799  -0.64368
 Alpha  occ. eigenvalues --   -0.62971  -0.61733  -0.60207  -0.59515  -0.59071
 Alpha  occ. eigenvalues --   -0.56936  -0.55148  -0.54773  -0.52440  -0.46810
 Alpha  occ. eigenvalues --   -0.46124  -0.44261
 Alpha virt. eigenvalues --   -0.26091  -0.14769  -0.14018  -0.12747  -0.11180
 Alpha virt. eigenvalues --   -0.10090  -0.09231  -0.07987  -0.07953  -0.07476
 Alpha virt. eigenvalues --   -0.07205  -0.07141  -0.05646  -0.05583  -0.05339

 Mulliken charges:
               1
     1  C    0.064436
     2  C   -0.432351
     3  C   -0.440381
     4  C   -0.064360
     5  C    0.070638
     6  C   -0.431746
     7  C   -0.380000
     8  C    0.127187
     9  C   -0.346802
    10  C    0.080339
    11  C   -0.644493
    12  C    0.800920
    13  C   -0.631562
    14  C    0.608546
    15  H    0.235540
    16  H    0.257566
    17  H    0.246136
    18  H    0.225440
    19  H    0.190434
    20  H    0.217890
    21  H    0.251126
    22  H    0.255066
    23  H    0.239290
    24  H    0.250571
    25  H    0.250571
 Sum of Mulliken charges =   1.00000

 Dipole moment (field-independent basis, Debye):
    X=              0.1577    Y=             -0.0991    Z=              0.0000  Tot=              0.1862
 Quadrupole moment (field-independent basis, Debye-Ang):
   XX=            -51.1542   YY=            -36.2668   ZZ=            -84.1366
   XY=             10.1509   XZ=              0.0000   YZ=             -0.0000

 Normal termination of Gaussian 16 at Wed Jul 27 11:39:59 2022.
