 Gaussian 16, Revision C.01,
 Gaussian 16:  ES64L-G16RevC.01  3-Jul-2019

 ---------------------------------------------------------------
 #n M062X/6-311++G(d,p) TD(NStates=1) EmpiricalDispersion=GD3 SP
 ---------------------------------------------------------------

 ----
 SP_0
 ----
 Symbolic Z-matrix:
 Charge =  1 Multiplicity = 1

                         Standard orientation:
 ---------------------------------------------------------------------
 Center     Atomic      Atomic             Coordinates (Angstroms)
 Number     Number       Type             X           Y           Z
 ---------------------------------------------------------------------
      1          6           0       -2.310787   -1.529314    0.000000
      2          6           0       -2.208444   -2.928385    0.000000
      3          6           0       -0.951619   -3.602255    0.000000
      4          6           0        0.120349   -2.942437    0.000000
      5          6           0        2.293270    1.479481    0.000000
      6          6           0        2.262247    3.029486    0.000000
      7          6           0        1.092718    3.698331    0.000000
      8          6           0       -0.039773    2.908683    0.000000
      9          6           0       -1.276236    0.696413    0.000000
     10          6           0        1.205584   -0.781401    0.000000
     11          6           0       -1.247760   -0.831339    0.000000
     12          6           0        0.070158   -1.478129    0.000000
     13          6           0        0.000000    1.365551    0.000000
     14          6           0        1.188694    0.729656    0.000000
     15          1           0       -3.298048   -1.080745    0.000000
     16          1           0       -3.119387   -3.512821    0.000000
     17          1           0       -0.956513   -4.684210    0.000000
     18          1           0        1.107078   -3.390520    0.000000
     19          1           0        2.177086   -1.256072    0.000000
     20          1           0        3.284003    1.039222    0.000000
     21          1           0        3.225101    3.531367    0.000000
     22          1           0        1.042763    4.774478    0.000000
     23          1           0       -1.031210    3.349090    0.000000
     24          1           0       -1.810639    1.172077    0.859585
     25          1           0       -1.810639    1.172077   -0.859585
 ---------------------------------------------------------------------

 SCF Done:  E(RM062X) =  -539.670230944     A.U. after   16 cycles

 Excitation energies and oscillator strengths:

 Excited State   1:      Singlet-A'     1.9399 eV  639.12 nm  f=0.0142  <S**2>=0.000
      47 -> 48         0.70302
 This state for optimization and/or second-order correction.
 Total Energy, E(TD-HF/TD-DFT) =  -539.598939691
 Copying the excited state density for this state as the 1-particle RhoCI density.

 The electronic state is 1-A'.
 Alpha  occ. eigenvalues --  -10.76539 -10.75000 -10.74738 -10.73337 -10.72359
 Alpha  occ. eigenvalues --  -10.71409 -10.71132 -10.70676 -10.70443 -10.70303
 Alpha  occ. eigenvalues --  -10.69443 -10.69266 -10.68711 -10.67905  -1.17642
 Alpha  occ. eigenvalues --   -1.12599  -1.07579  -1.06705  -1.01758  -1.01106
 Alpha  occ. eigenvalues --   -0.94787  -0.90478  -0.86567  -0.85622  -0.83662
 Alpha  occ. eigenvalues --   -0.77606  -0.77036  -0.74236  -0.70985  -0.69452
 Alpha  occ. eigenvalues --   -0.68174  -0.67966  -0.67339  -0.66389  -0.64113
 Alpha  occ. eigenvalues --   -0.61903  -0.61770  -0.61479  -0.58382  -0.58117
 Alpha  occ. eigenvalues --   -0.56399  -0.55577  -0.52429  -0.52243  -0.50768
 Alpha  occ. eigenvalues --   -0.46381  -0.40652
 Alpha virt. eigenvalues --   -0.26373  -0.14840  -0.13655  -0.12367  -0.11326
 Alpha virt. eigenvalues --   -0.10170  -0.09503  -0.07811  -0.07598  -0.07570
 Alpha virt. eigenvalues --   -0.07284  -0.06847  -0.05686  -0.05504  -0.05490

 Mulliken charges:
               1
     1  C    0.027354
     2  C   -0.394174
     3  C   -0.410879
     4  C    0.049389
     5  C   -0.070642
     6  C   -0.461693
     7  C   -0.415504
     8  C    0.166226
     9  C   -0.393568
    10  C    0.017991
    11  C   -0.658829
    12  C    0.714729
    13  C   -0.437931
    14  C    0.643103
    15  H    0.243601
    16  H    0.273223
    17  H    0.257933
    18  H    0.231959
    19  H    0.181981
    20  H    0.214502
    21  H    0.238626
    22  H    0.241339
    23  H    0.232892
    24  H    0.254185
    25  H    0.254185
 Sum of Mulliken charges =   1.00000

 Dipole moment (field-independent basis, Debye):
    X=             -1.6765    Y=             -3.1611    Z=             -0.0000  Tot=              3.5782
 Quadrupole moment (field-independent basis, Debye-Ang):
   XX=            -51.8434   YY=            -34.3222   ZZ=            -83.9739
   XY=             10.2044   XZ=              0.0000   YZ=             -0.0000

 Normal termination of Gaussian 16 at Wed Jul 27 11:37:09 2022.
