 Gaussian 16, Revision C.01,
 Gaussian 16:  ES64L-G16RevC.01  3-Jul-2019

 ---------------------------------------------------------------
 #n M062X/6-311++G(d,p) TD(NStates=1) EmpiricalDispersion=GD3 SP
 ---------------------------------------------------------------

 ----
 SP_1
 ----
 Symbolic Z-matrix:
 Charge =  1 Multiplicity = 1

                         Standard orientation:
 ---------------------------------------------------------------------
 Center     Atomic      Atomic             Coordinates (Angstroms)
 Number     Number       Type             X           Y           Z
 ---------------------------------------------------------------------
      1          6           0       -2.359640   -1.519016    0.000000
      2          6           0       -2.291972   -2.904375    0.000000
      3          6           0       -1.055891   -3.582513    0.000000
      4          6           0        0.070018   -2.904462    0.000000
      5          6           0        2.350923    1.462338    0.000000
      6          6           0        2.340206    2.956558    0.000000
      7          6           0        1.163107    3.643111    0.000000
      8          6           0       -0.001500    2.873306    0.000000
      9          6           0       -1.266252    0.714024    0.000000
     10          6           0        1.225296   -0.739227    0.000000
     11          6           0       -1.224781   -0.812976    0.000000
     12          6           0        0.028266   -1.461704    0.000000
     13          6           0       -0.000000    1.394362    0.000000
     14          6           0        1.224520    0.705141    0.000000
     15          1           0       -3.308333   -0.998164    0.000000
     16          1           0       -3.221653   -3.455663    0.000000
     17          1           0       -1.027045   -4.661712    0.000000
     18          1           0        1.021023   -3.419530    0.000000
     19          1           0        2.169006   -1.266957    0.000000
     20          1           0        3.307844    0.954069    0.000000
     21          1           0        3.284398    3.486623    0.000000
     22          1           0        1.151028    4.722217    0.000000
     23          1           0       -0.956288    3.387024    0.000000
     24          1           0       -1.816885    1.152342    0.859585
     25          1           0       -1.816885    1.152342   -0.859585
 ---------------------------------------------------------------------

 SCF Done:  E(RM062X) =  -539.728411305     A.U. after   16 cycles

 Excitation energies and oscillator strengths:

 Excited State   1:      Singlet-A'     2.3836 eV  520.15 nm  f=0.0176  <S**2>=0.000
      47 -> 48         0.70335
 This state for optimization and/or second-order correction.
 Total Energy, E(TD-HF/TD-DFT) =  -539.640814167
 Copying the excited state density for this state as the 1-particle RhoCI density.

 The electronic state is 1-A'.
 Alpha  occ. eigenvalues --  -10.77501 -10.73866 -10.73038 -10.72677 -10.72602
 Alpha  occ. eigenvalues --  -10.71651 -10.71584 -10.71093 -10.70802 -10.70119
 Alpha  occ. eigenvalues --  -10.69831 -10.69681 -10.69587 -10.69420  -1.16842
 Alpha  occ. eigenvalues --   -1.12607  -1.06780  -1.06151  -1.01551  -1.01039
 Alpha  occ. eigenvalues --   -0.95064  -0.90852  -0.86613  -0.85814  -0.83778
 Alpha  occ. eigenvalues --   -0.78085  -0.76453  -0.74190  -0.69814  -0.69444
 Alpha  occ. eigenvalues --   -0.68281  -0.68051  -0.67975  -0.65846  -0.64453
 Alpha  occ. eigenvalues --   -0.62269  -0.61087  -0.61028  -0.59063  -0.58789
 Alpha  occ. eigenvalues --   -0.57049  -0.55400  -0.53978  -0.52372  -0.48530
 Alpha  occ. eigenvalues --   -0.46194  -0.42645
 Alpha virt. eigenvalues --   -0.26121  -0.14911  -0.13929  -0.12652  -0.11208
 Alpha virt. eigenvalues --   -0.10106  -0.09296  -0.07928  -0.07821  -0.07508
 Alpha virt. eigenvalues --   -0.07224  -0.07110  -0.05666  -0.05562  -0.05377

 Mulliken charges:
               1
     1  C    0.040689
     2  C   -0.429946
     3  C   -0.428132
     4  C   -0.025942
     5  C    0.039659
     6  C   -0.437829
     7  C   -0.388612
     8  C    0.164012
     9  C   -0.344509
    10  C    0.070046
    11  C   -0.653140
    12  C    0.806554
    13  C   -0.592597
    14  C    0.561108
    15  H    0.237451
    16  H    0.264599
    17  H    0.249490
    18  H    0.229264
    19  H    0.187812
    20  H    0.213046
    21  H    0.246358
    22  H    0.248638
    23  H    0.235706
    24  H    0.253137
    25  H    0.253137
 Sum of Mulliken charges =   1.00000

 Dipole moment (field-independent basis, Debye):
    X=             -0.6090    Y=             -1.3987    Z=             -0.0000  Tot=              1.5256
 Quadrupole moment (field-independent basis, Debye-Ang):
   XX=            -51.6729   YY=            -35.5525   ZZ=            -84.1019
   XY=              9.8998   XZ=              0.0000   YZ=             -0.0000

 Normal termination of Gaussian 16 at Wed Jul 27 11:42:54 2022.
