 Gaussian 16, Revision C.01,
 Gaussian 16:  ES64L-G16RevC.01  3-Jul-2019

 ---------------------------------------------------------------
 #n M062X/6-311++G(d,p) TD(NStates=1) EmpiricalDispersion=GD3 SP
 ---------------------------------------------------------------

 ----
 SP_4
 ----
 Symbolic Z-matrix:
 Charge =  1 Multiplicity = 1

                         Standard orientation:
 ---------------------------------------------------------------------
 Center     Atomic      Atomic             Coordinates (Angstroms)
 Number     Number       Type             X           Y           Z
 ---------------------------------------------------------------------
      1          6           0       -2.411943   -1.453659    0.000000
      2          6           0       -2.352169   -2.809293    0.000000
      3          6           0       -1.140743   -3.546745    0.000000
      4          6           0       -0.017013   -2.937633    0.000000
      5          6           0        2.365636    1.375056    0.000000
      6          6           0        2.418909    2.905440    0.000000
      7          6           0        1.280557    3.641532    0.000000
      8          6           0        0.083339    2.862236    0.000000
      9          6           0       -1.228863    0.778406    0.000000
     10          6           0        1.211041   -0.760901    0.000000
     11          6           0       -1.232147   -0.814645    0.000000
     12          6           0       -0.080699   -1.467998    0.000000
     13          6           0        0.000000    1.388528    0.000000
     14          6           0        1.272482    0.608715    0.000000
     15          1           0       -3.288918   -0.813960    0.000000
     16          1           0       -3.325605   -3.281718    0.000000
     17          1           0       -1.093358   -4.623523    0.000000
     18          1           0        0.871434   -3.556024    0.000000
     19          1           0        2.093913   -1.394090    0.000000
     20          1           0        3.265401    0.760287    0.000000
     21          1           0        3.355436    3.452392    0.000000
     22          1           0        1.358598    4.722047    0.000000
     23          1           0       -0.805143    3.497983    0.000000
     24          1           0       -1.721045    1.311186    0.859585
     25          1           0       -1.721045    1.311186   -0.859585
 ---------------------------------------------------------------------

 SCF Done:  E(RM062X) =  -539.658509157     A.U. after   16 cycles

 Excitation energies and oscillator strengths:

 Excited State   1:      Singlet-A'     2.2518 eV  550.60 nm  f=0.0281  <S**2>=0.000
      47 -> 48         0.70465
 This state for optimization and/or second-order correction.
 Total Energy, E(TD-HF/TD-DFT) =  -539.575756522
 Copying the excited state density for this state as the 1-particle RhoCI density.

 The electronic state is 1-A'.
 Alpha  occ. eigenvalues --  -10.77689 -10.73989 -10.72852 -10.72634 -10.72251
 Alpha  occ. eigenvalues --  -10.72113 -10.71393 -10.71080 -10.70806 -10.70617
 Alpha  occ. eigenvalues --  -10.70414 -10.70194 -10.69286 -10.68524  -1.17150
 Alpha  occ. eigenvalues --   -1.13110  -1.06801  -1.06604  -1.02538  -1.01349
 Alpha  occ. eigenvalues --   -0.94812  -0.90932  -0.86794  -0.85585  -0.83437
 Alpha  occ. eigenvalues --   -0.78053  -0.76504  -0.73978  -0.70111  -0.69555
 Alpha  occ. eigenvalues --   -0.68361  -0.68275  -0.67810  -0.65277  -0.64830
 Alpha  occ. eigenvalues --   -0.62075  -0.61375  -0.60661  -0.58954  -0.58480
 Alpha  occ. eigenvalues --   -0.57186  -0.54458  -0.53804  -0.52465  -0.48668
 Alpha  occ. eigenvalues --   -0.46261  -0.42425
 Alpha virt. eigenvalues --   -0.26130  -0.15451  -0.13755  -0.12251  -0.11205
 Alpha virt. eigenvalues --   -0.10153  -0.09250  -0.08064  -0.07734  -0.07487
 Alpha virt. eigenvalues --   -0.07216  -0.07065  -0.05714  -0.05605  -0.05432

 Mulliken charges:
               1
     1  C   -0.028720
     2  C   -0.484569
     3  C   -0.381800
     4  C    0.066476
     5  C    0.140465
     6  C   -0.378366
     7  C   -0.236298
     8  C    0.173624
     9  C   -0.493209
    10  C   -0.179370
    11  C    0.108020
    12  C    0.551653
    13  C   -0.610618
    14  C    0.113656
    15  H    0.233296
    16  H    0.260932
    17  H    0.233207
    18  H    0.247192
    19  H    0.195141
    20  H    0.200400
    21  H    0.255231
    22  H    0.254761
    23  H    0.239740
    24  H    0.259577
    25  H    0.259577
 Sum of Mulliken charges =   1.00000

 Dipole moment (field-independent basis, Debye):
    X=              0.1047    Y=             -0.1114    Z=             -0.0000  Tot=              0.1529
 Quadrupole moment (field-independent basis, Debye-Ang):
   XX=            -52.9554   YY=            -35.0863   ZZ=            -84.0615
   XY=              9.1630   XZ=             -0.0000   YZ=              0.0000

 Normal termination of Gaussian 16 at Wed Jul 27 12:12:32 2022.
