 Gaussian 16, Revision C.01,
 Gaussian 16:  ES64L-G16RevC.01  3-Jul-2019

 ---------------------------------------------------------------
 #n M062X/6-311++G(d,p) TD(NStates=1) EmpiricalDispersion=GD3 SP
 ---------------------------------------------------------------

 ----
 SP_2
 ----
 Symbolic Z-matrix:
 Charge =  1 Multiplicity = 1

                         Standard orientation:
 ---------------------------------------------------------------------
 Center     Atomic      Atomic             Coordinates (Angstroms)
 Number     Number       Type             X           Y           Z
 ---------------------------------------------------------------------
      1          6           0       -2.394700   -1.504175    0.000000
      2          6           0       -2.347174   -2.876988    0.000000
      3          6           0       -1.125937   -3.565281    0.000000
      4          6           0        0.030872   -2.887150    0.000000
      5          6           0        2.385574    1.440189    0.000000
      6          6           0        2.393803    2.907692    0.000000
      7          6           0        1.217682    3.611290    0.000000
      8          6           0        0.030618    2.851415    0.000000
      9          6           0       -1.255503    0.732753    0.000000
     10          6           0        1.235892   -0.718265    0.000000
     11          6           0       -1.212206   -0.803830    0.000000
     12          6           0       -0.010278   -1.452862    0.000000
     13          6           0        0.000000    1.410204    0.000000
     14          6           0        1.251465    0.677389    0.000000
     15          1           0       -3.310332   -0.925975    0.000000
     16          1           0       -3.293249   -3.398282    0.000000
     17          1           0       -1.074675   -4.643340    0.000000
     18          1           0        0.951819   -3.454358    0.000000
     19          1           0        2.154601   -1.290643    0.000000
     20          1           0        3.314286    0.878719    0.000000
     21          1           0        3.326687    3.457089    0.000000
     22          1           0        1.239712    4.691910    0.000000
     23          1           0       -0.892965    3.423545    0.000000
     24          1           0       -1.808263    1.163524    0.859585
     25          1           0       -1.808263    1.163524   -0.859585
 ---------------------------------------------------------------------

 SCF Done:  E(RM062X) =  -539.735054721     A.U. after   16 cycles

 Excitation energies and oscillator strengths:

 Excited State   1:      Singlet-A'     2.6035 eV  476.22 nm  f=0.0265  <S**2>=0.000
      47 -> 48         0.70299
 This state for optimization and/or second-order correction.
 Total Energy, E(TD-HF/TD-DFT) =  -539.639377663
 Copying the excited state density for this state as the 1-particle RhoCI density.

 The electronic state is 1-A'.
 Alpha  occ. eigenvalues --  -10.77676 -10.73548 -10.73021 -10.72562 -10.72291
 Alpha  occ. eigenvalues --  -10.71847 -10.71082 -10.71064 -10.70913 -10.70810
 Alpha  occ. eigenvalues --  -10.70311 -10.70062 -10.69623 -10.69115  -1.16622
 Alpha  occ. eigenvalues --   -1.12635  -1.06882  -1.05973  -1.01428  -1.00784
 Alpha  occ. eigenvalues --   -0.95417  -0.91046  -0.86498  -0.85816  -0.83738
 Alpha  occ. eigenvalues --   -0.78305  -0.76176  -0.74266  -0.69834  -0.69125
 Alpha  occ. eigenvalues --   -0.68541  -0.68139  -0.68094  -0.64947  -0.64546
 Alpha  occ. eigenvalues --   -0.62732  -0.61404  -0.60550  -0.59290  -0.58990
 Alpha  occ. eigenvalues --   -0.57028  -0.54979  -0.54570  -0.52445  -0.47306
 Alpha  occ. eigenvalues --   -0.46190  -0.43732
 Alpha virt. eigenvalues --   -0.26100  -0.14975  -0.13881  -0.12658  -0.11185
 Alpha virt. eigenvalues --   -0.10103  -0.09234  -0.08002  -0.07905  -0.07477
 Alpha virt. eigenvalues --   -0.07210  -0.07130  -0.05658  -0.05588  -0.05357

 Mulliken charges:
               1
     1  C    0.035398
     2  C   -0.453843
     3  C   -0.428085
     4  C   -0.174201
     5  C    0.117776
     6  C   -0.418795
     7  C   -0.354557
     8  C    0.168556
     9  C   -0.384483
    10  C    0.039343
    11  C   -0.630022
    12  C    0.959435
    13  C   -0.632894
    14  C    0.535859
    15  H    0.234276
    16  H    0.258830
    17  H    0.242864
    18  H    0.228027
    19  H    0.190774
    20  H    0.213246
    21  H    0.252889
    22  H    0.253848
    23  H    0.241287
    24  H    0.252237
    25  H    0.252237
 Sum of Mulliken charges =   1.00000

 Dipole moment (field-independent basis, Debye):
    X=              0.1461    Y=             -0.1074    Z=              0.0000  Tot=              0.1813
 Quadrupole moment (field-independent basis, Debye-Ang):
   XX=            -51.7083   YY=            -35.8377   ZZ=            -84.1210
   XY=              9.8263   XZ=             -0.0000   YZ=              0.0000

 Normal termination of Gaussian 16 at Wed Jul 27 11:50:32 2022.
