 Gaussian 16, Revision C.01,
 Gaussian 16:  ES64L-G16RevC.01  3-Jul-2019

 ---------------------------------------------------------------
 #n M062X/6-311++G(d,p) TD(NStates=1) EmpiricalDispersion=GD3 SP
 ---------------------------------------------------------------

 ----
 SP_3
 ----
 Symbolic Z-matrix:
 Charge =  1 Multiplicity = 1

                         Standard orientation:
 ---------------------------------------------------------------------
 Center     Atomic      Atomic             Coordinates (Angstroms)
 Number     Number       Type             X           Y           Z
 ---------------------------------------------------------------------
      1          6           0       -2.403357   -1.479082    0.000000
      2          6           0       -2.349693   -2.843215    0.000000
      3          6           0       -1.133167   -3.556033    0.000000
      4          6           0        0.007296   -2.912489    0.000000
      5          6           0        2.375701    1.407646    0.000000
      6          6           0        2.406121    2.906720    0.000000
      7          6           0        1.248751    3.626619    0.000000
      8          6           0        0.056766    2.856947    0.000000
      9          6           0       -1.242366    0.755586    0.000000
     10          6           0        1.223638   -0.739584    0.000000
     11          6           0       -1.222051   -0.809362    0.000000
     12          6           0       -0.045342   -1.460659    0.000000
     13          6           0        0.000000    1.399325    0.000000
     14          6           0        1.262162    0.643188    0.000000
     15          1           0       -3.299906   -0.870056    0.000000
     16          1           0       -3.309578   -3.340222    0.000000
     17          1           0       -1.083785   -4.633431    0.000000
     18          1           0        0.912198   -3.505342    0.000000
     19          1           0        2.124671   -1.342434    0.000000
     20          1           0        3.290152    0.819487    0.000000
     21          1           0        3.340776    3.454947    0.000000
     22          1           0        1.298722    4.707373    0.000000
     23          1           0       -0.849520    3.460949    0.000000
     24          1           0       -1.765242    1.237548    0.859585
     25          1           0       -1.765242    1.237548   -0.859585
 ---------------------------------------------------------------------

 SCF Done:  E(RM062X) =  -539.703342828     A.U. after   16 cycles

 Excitation energies and oscillator strengths:

 Excited State   1:      Singlet-A'     2.4317 eV  509.87 nm  f=0.0270  <S**2>=0.000
      47 -> 48         0.70378
 This state for optimization and/or second-order correction.
 Total Energy, E(TD-HF/TD-DFT) =  -539.613980219
 Copying the excited state density for this state as the 1-particle RhoCI density.

 The electronic state is 1-A'.
 Alpha  occ. eigenvalues --  -10.77685 -10.73749 -10.72932 -10.72608 -10.72225
 Alpha  occ. eigenvalues --  -10.72040 -10.71212 -10.71079 -10.70859 -10.70508
 Alpha  occ. eigenvalues --  -10.70469 -10.70248 -10.69451 -10.68829  -1.16843
 Alpha  occ. eigenvalues --   -1.12837  -1.06816  -1.06265  -1.01788  -1.01182
 Alpha  occ. eigenvalues --   -0.95100  -0.91011  -0.86614  -0.85715  -0.83621
 Alpha  occ. eigenvalues --   -0.78194  -0.76328  -0.74121  -0.69985  -0.69285
 Alpha  occ. eigenvalues --   -0.68445  -0.68192  -0.67986  -0.65124  -0.64716
 Alpha  occ. eigenvalues --   -0.62417  -0.61011  -0.60943  -0.59099  -0.58810
 Alpha  occ. eigenvalues --   -0.57125  -0.54744  -0.54237  -0.52453  -0.47954
 Alpha  occ. eigenvalues --   -0.46229  -0.43100
 Alpha virt. eigenvalues --   -0.26113  -0.15209  -0.13785  -0.12492  -0.11194
 Alpha virt. eigenvalues --   -0.10124  -0.09241  -0.08028  -0.07829  -0.07481
 Alpha virt. eigenvalues --   -0.07219  -0.07108  -0.05680  -0.05596  -0.05389

 Mulliken charges:
               1
     1  C   -0.002046
     2  C   -0.472240
     3  C   -0.402568
     4  C   -0.301077
     5  C    0.170029
     6  C   -0.402048
     7  C   -0.335994
     8  C    0.218315
     9  C   -0.435111
    10  C   -0.023691
    11  C   -0.560662
    12  C    1.122381
    13  C   -0.639965
    14  C    0.441954
    15  H    0.233151
    16  H    0.260054
    17  H    0.239100
    18  H    0.229962
    19  H    0.191861
    20  H    0.207987
    21  H    0.254358
    22  H    0.252616
    23  H    0.243190
    24  H    0.255221
    25  H    0.255221
 Sum of Mulliken charges =   1.00000

 Dipole moment (field-independent basis, Debye):
    X=              0.1291    Y=             -0.1123    Z=             -0.0000  Tot=              0.1711
 Quadrupole moment (field-independent basis, Debye-Ang):
   XX=            -52.3074   YY=            -35.4455   ZZ=            -84.0948
   XY=              9.4986   XZ=              0.0000   YZ=             -0.0000

 Normal termination of Gaussian 16 at Wed Jul 27 12:01:30 2022.
