 Gaussian 16, Revision C.01,
 Gaussian 16:  ES64L-G16RevC.01  3-Jul-2019

 ---------------------------------------------------------------
 #n M062X/6-311++G(d,p) TD(NStates=1) EmpiricalDispersion=GD3 SP
 ---------------------------------------------------------------

 ----
 SP_3
 ----
 Symbolic Z-matrix:
 Charge =  1 Multiplicity = 1

                         Standard orientation:
 ---------------------------------------------------------------------
 Center     Atomic      Atomic             Coordinates (Angstroms)
 Number     Number       Type             X           Y           Z
 ---------------------------------------------------------------------
      1          6           0       -2.377233   -1.469094    0.000000
      2          6           0       -2.297699   -2.837081    0.000000
      3          6           0       -1.070775   -3.564519    0.000000
      4          6           0        0.022791   -2.955589    0.000000
      5          6           0        2.331675    1.397250    0.000000
      6          6           0        2.365376    2.954971    0.000000
      7          6           0        1.225521    3.674367    0.000000
      8          6           0        0.051216    2.884753    0.000000
      9          6           0       -1.240340    0.759995    0.000000
     10          6           0        1.200529   -0.781828    0.000000
     11          6           0       -1.244370   -0.823783    0.000000
     12          6           0       -0.041971   -1.478151    0.000000
     13          6           0        0.000000    1.372367    0.000000
     14          6           0        1.246666    0.637117    0.000000
     15          1           0       -3.288891   -0.885846    0.000000
     16          1           0       -3.255684   -3.340100    0.000000
     17          1           0       -1.045788   -4.641902    0.000000
     18          1           0        0.942683   -3.522604    0.000000
     19          1           0        2.109821   -1.371103    0.000000
     20          1           0        3.261082    0.834999    0.000000
     21          1           0        3.312702    3.482404    0.000000
     22          1           0        1.269359    4.754484    0.000000
     23          1           0       -0.870142    3.462906    0.000000
     24          1           0       -1.731718    1.301056    0.859585
     25          1           0       -1.731718    1.301056   -0.859585
 ---------------------------------------------------------------------

 SCF Done:  E(RM062X) =  -539.653482099     A.U. after   16 cycles

 Excitation energies and oscillator strengths:

 Excited State   1:      Singlet-A'     2.0446 eV  606.40 nm  f=0.0228  <S**2>=0.000
      47 -> 48         0.70397
 This state for optimization and/or second-order correction.
 Total Energy, E(TD-HF/TD-DFT) =  -539.578344950
 Copying the excited state density for this state as the 1-particle RhoCI density.

 The electronic state is 1-A'.
 Alpha  occ. eigenvalues --  -10.77543 -10.73730 -10.73188 -10.73138 -10.72642
 Alpha  occ. eigenvalues --  -10.71518 -10.71428 -10.71053 -10.70821 -10.70152
 Alpha  occ. eigenvalues --  -10.69778 -10.69769 -10.69513 -10.69035  -1.17492
 Alpha  occ. eigenvalues --   -1.13016  -1.06833  -1.06481  -1.03001  -1.01359
 Alpha  occ. eigenvalues --   -0.94518  -0.90427  -0.87102  -0.85606  -0.83543
 Alpha  occ. eigenvalues --   -0.77734  -0.76847  -0.73921  -0.69909  -0.69603
 Alpha  occ. eigenvalues --   -0.68434  -0.68099  -0.67928  -0.66151  -0.64737
 Alpha  occ. eigenvalues --   -0.61818  -0.61562  -0.60441  -0.58390  -0.58332
 Alpha  occ. eigenvalues --   -0.57400  -0.54948  -0.53433  -0.52285  -0.49982
 Alpha  occ. eigenvalues --   -0.46286  -0.41314
 Alpha virt. eigenvalues --   -0.26108  -0.15389  -0.13986  -0.12179  -0.11230
 Alpha virt. eigenvalues --   -0.10145  -0.09325  -0.07944  -0.07667  -0.07537
 Alpha virt. eigenvalues --   -0.07245  -0.07050  -0.05733  -0.05565  -0.05432

 Mulliken charges:
               1
     1  C   -0.003371
     2  C   -0.490021
     3  C   -0.394933
     4  C   -0.238116
     5  C    0.157169
     6  C   -0.400535
     7  C   -0.357832
     8  C    0.271753
     9  C   -0.392873
    10  C   -0.012712
    11  C   -0.609588
    12  C    1.060196
    13  C   -0.586260
    14  C    0.377033
    15  H    0.233129
    16  H    0.266836
    17  H    0.240826
    18  H    0.232701
    19  H    0.187145
    20  H    0.201655
    21  H    0.249081
    22  H    0.246884
    23  H    0.237811
    24  H    0.262011
    25  H    0.262011
 Sum of Mulliken charges =   1.00000

 Dipole moment (field-independent basis, Debye):
    X=             -0.6832    Y=             -1.3472    Z=             -0.0000  Tot=              1.5106
 Quadrupole moment (field-independent basis, Debye-Ang):
   XX=            -52.8328   YY=            -34.7511   ZZ=            -84.0442
   XY=              9.2364   XZ=              0.0000   YZ=             -0.0000

 Normal termination of Gaussian 16 at Wed Jul 27 12:04:36 2022.
