 Gaussian 16, Revision C.01,
 Gaussian 16:  ES64L-G16RevC.01  3-Jul-2019

 ---------------------------------------------------
 #n wB97XD/cc-pvtz TD Opt=(TS,CalcAll) Geom=AllCheck
 ---------------------------------------------------

 Structure from the checkpoint file:  "check_ts4.chk"
 -----
 Title
 -----
 Charge =  1 Multiplicity = 1

 SCF Done:  E(RwB97XD) =  -539.852674486     A.U. after   15 cycles
 Total Energy, E(TD-HF/TD-DFT) =  -539.748204059
 SCF Done:  E(RwB97XD) =  -539.853311235     A.U. after   16 cycles

 Excitation energies and oscillator strengths:

 Excited State   1:      Singlet-A1     2.8538 eV  434.45 nm  f=0.0293  <S**2>=0.000
      47 -> 48         0.70245
 This state for optimization and/or second-order correction.
 Total Energy, E(TD-HF/TD-DFT) =  -539.748436366
 Copying the excited state density for this state as the 1-particle RhoCI density.

 Excited State   2:      Singlet-B2     3.2825 eV  377.72 nm  f=0.0079  <S**2>=0.000
      45 -> 48         0.62044
      46 -> 48        -0.32064

 Excited State   3:      Singlet-B2     3.5071 eV  353.53 nm  f=0.5465  <S**2>=0.000
      45 -> 48         0.32411
      46 -> 48         0.61568

 Optimization completed.
    -- Stationary point found.

                         Standard orientation:
 ---------------------------------------------------------------------
 Center     Atomic      Atomic             Coordinates (Angstroms)
 Number     Number       Type             X           Y           Z
 ---------------------------------------------------------------------
      1          6           0       -0.000000    2.491732    1.358500
      2          6           0       -0.000000    3.698090    0.669901
      3          6           0       -0.000000    3.679653   -0.714187
      4          6           0       -0.000000    2.460215   -1.406069
      5          6           0       -0.000000   -2.460215   -1.406069
      6          6           0       -0.000000   -3.679653   -0.714187
      7          6           0       -0.000000   -3.698090    0.669901
      8          6           0       -0.000000   -2.491732    1.358500
      9          6           0       -0.000000    0.000000    1.453121
     10          6           0        0.000000    0.000000   -1.425870
     11          6           0       -0.000000    1.261475    0.676751
     12          6           0       -0.000000    1.237704   -0.728436
     13          6           0       -0.000000   -1.261475    0.676751
     14          6           0       -0.000000   -1.237704   -0.728436
     15          1           0       -0.000000    2.490553    2.441115
     16          1           0       -0.000000    4.633537    1.208825
     17          1           0       -0.000000    4.604652   -1.272889
     18          1           0       -0.000000    2.465972   -2.488120
     19          1           0        0.000000    0.000000   -2.506033
     20          1           0       -0.000000   -2.465972   -2.488120
     21          1           0       -0.000000   -4.604652   -1.272889
     22          1           0       -0.000000   -4.633537    1.208825
     23          1           0       -0.000000   -2.490553    2.441115
     24          1           0       -0.859599    0.000000    2.143569
     25          1           0        0.859599   -0.000000    2.143569
 ---------------------------------------------------------------------

 The electronic state is 1-A1.
 Alpha  occ. eigenvalues --  -10.52207 -10.47809 -10.47809 -10.46943 -10.46943
 Alpha  occ. eigenvalues --  -10.45833 -10.45832 -10.45612 -10.45486 -10.45486
 Alpha  occ. eigenvalues --  -10.44436 -10.44436 -10.44136 -10.44136  -1.15858
 Alpha  occ. eigenvalues --   -1.12042  -1.06772  -1.05641  -1.01410  -1.00319
 Alpha  occ. eigenvalues --   -0.96119  -0.91673  -0.87322  -0.86828  -0.84737
 Alpha  occ. eigenvalues --   -0.79546  -0.77417  -0.75820  -0.71108  -0.70739
 Alpha  occ. eigenvalues --   -0.70087  -0.69880  -0.69848  -0.66408  -0.65932
 Alpha  occ. eigenvalues --   -0.64860  -0.63659  -0.62010  -0.61681  -0.60981
 Alpha  occ. eigenvalues --   -0.58858  -0.57267  -0.56963  -0.54591  -0.48846
 Alpha  occ. eigenvalues --   -0.48105  -0.46694
 Alpha virt. eigenvalues --   -0.22405  -0.10680  -0.10325  -0.08892  -0.03290
 Alpha virt. eigenvalues --   -0.00751  -0.00575   0.00565   0.02098   0.03382
 Alpha virt. eigenvalues --    0.04069   0.05349   0.05590   0.06847   0.07165

 Mulliken charges:
               1
     1  C   -0.116005
     2  C   -0.030482
     3  C   -0.107244
     4  C   -0.073199
     5  C   -0.073199
     6  C   -0.107244
     7  C   -0.030482
     8  C   -0.116005
     9  C   -0.089350
    10  C    0.049521
    11  C    0.040925
    12  C    0.021149
    13  C    0.040925
    14  C    0.021149
    15  H    0.135259
    16  H    0.148830
    17  H    0.144002
    18  H    0.134187
    19  H    0.150955
    20  H    0.134187
    21  H    0.144002
    22  H    0.148830
    23  H    0.135259
    24  H    0.147015
    25  H    0.147015
 Sum of Mulliken charges =   1.00000

 Dipole moment (field-independent basis, Debye):
    X=             -0.0000    Y=             -0.0000    Z=             -0.2195  Tot=              0.2195
 Quadrupole moment (field-independent basis, Debye-Ang):
   XX=            -82.3028   YY=            -30.8578   ZZ=            -55.8867
   XY=              0.0000   XZ=             -0.0000   YZ=              0.0000

  Exact polarizability:     886.753      -0.000     153.987       0.000      -0.000      68.695
 Approx polarizability:      94.269       0.000     276.873       0.000       0.000     199.268

 ******    1 imaginary frequencies (negative Signs) ******

                      1                      2                      3
                     B2                     B1                     A2
 Frequencies --   -163.8872                60.5303               108.7434
 Red. masses --      6.0638                 3.8885                 3.6383
 Frc consts  --      0.0960                 0.0084                 0.0253
 IR Inten    --  15818.9397                 0.1739                 0.0000

                      4                      5                      6
                     B1                     A2                     A1
 Frequencies --    201.0037               223.6511               235.7726
 Red. masses --      2.0005                 4.6668                 4.3835
 Frc consts  --      0.0476                 0.1375                 0.1436
 IR Inten    --      9.8617                 0.0000                 0.0553

                      7                      8                      9
                     B1                     A1                     B1
 Frequencies --    283.4794               379.9016               388.4268
 Red. masses --      2.7310                 6.8193                 2.4623
 Frc consts  --      0.1293                 0.5799                 0.2189
 IR Inten    --      3.8660                 0.0179                12.8633

                     10                     11                     12
                     B2                     A2                     A2
 Frequencies --    392.1289               420.9866               480.0751
 Red. masses --      4.3818                 2.8754                 2.9747
 Frc consts  --      0.3970                 0.3003                 0.4039
 IR Inten    --    208.8963                 0.0000                 0.0000

                     13                     14                     15
                     B1                     B2                     B1
 Frequencies --    503.3932               564.5729               585.7319
 Red. masses --      2.2968                 6.7681                 2.1805
 Frc consts  --      0.3429                 1.2710                 0.4408
 IR Inten    --      8.3286               402.1314                 0.1639

                     16                     17                     18
                     A1                     A1                     A2
 Frequencies --    618.0239               674.9996               677.3089
 Red. masses --      6.4447                 5.9396                 2.7163
 Frc consts  --      1.4503                 1.5945                 0.7342
 IR Inten    --      0.7685                 0.6176                 0.0000

                     19                     20                     21
                     B1                     A1                     A2
 Frequencies --    732.0323               758.1031               766.8759
 Red. masses --      1.2235                 5.3537                 1.2409
 Frc consts  --      0.3863                 1.8128                 0.4300
 IR Inten    --     16.5806                 0.6066                 0.0000

                     22                     23                     24
                     B1                     B2                     B1
 Frequencies --    784.5676               814.5427               878.0900
 Red. masses --      1.4819                 3.9557                 1.8369
 Frc consts  --      0.5374                 1.5463                 0.8345
 IR Inten    --     86.8518               669.4249                14.8271

                     25                     26                     27
                     A1                     A2                     B2
 Frequencies --    904.0097               907.5859               913.6949
 Red. masses --      5.5560                 1.4780                 3.1487
 Frc consts  --      2.6752                 0.7173                 1.5488
 IR Inten    --      1.8124                 0.0000              3672.2857

                     28                     29                     30
                     B1                     B2                     A2
 Frequencies --    928.0999               930.7092               992.8039
 Red. masses --      2.1196                 3.4686                 1.4147
 Frc consts  --      1.0757                 1.7702                 0.8215
 IR Inten    --      0.4495              6768.9905                 0.0000

                     31                     32                     33
                     B1                     A2                     B1
 Frequencies --   1002.0741              1027.7609              1029.4345
 Red. masses --      1.4844                 1.4764                 1.4627
 Frc consts  --      0.8782                 0.9188                 0.9133
 IR Inten    --      2.9622                 0.0000                 0.7793

                     34                     35                     36
                     A1                     B2                     B2
 Frequencies --   1071.6749              1096.5678              1112.2078
 Red. masses --      2.4319                 1.9217                 2.0205
 Frc consts  --      1.6456                 1.3615                 1.4726
 IR Inten    --      1.5393              1109.8167                13.6403

                     37                     38                     39
                     A1                     A2                     B2
 Frequencies --   1151.0967              1158.4116              1190.7965
 Red. masses --      1.6147                 1.1363                 1.2238
 Frc consts  --      1.2605                 0.8984                 1.0225
 IR Inten    --      0.0889                 0.0000                 3.3632

                     40                     41                     42
                     A1                     B2                     A1
 Frequencies --   1205.4902              1208.6971              1236.2495
 Red. masses --      1.1356                 1.6203                 4.2728
 Frc consts  --      0.9723                 1.3947                 3.8474
 IR Inten    --      4.3191                 0.0869                 2.7993

                     43                     44                     45
                     B2                     A1                     A1
 Frequencies --   1269.9391              1279.7468              1323.4042
 Red. masses --      1.9866                 3.7229                 1.6286
 Frc consts  --      1.8876                 3.5924                 1.6805
 IR Inten    --    225.4168                 0.6107                 0.3203

                     46                     47                     48
                     A1                     B2                     B2
 Frequencies --   1349.7966              1351.1824              1375.0247
 Red. masses --      2.3515                 5.0751                 2.2737
 Frc consts  --      2.5242                 5.4591                 2.5328
 IR Inten    --     56.5534               271.6583              1573.1049

                     49                     50                     51
                     A1                     B2                     B2
 Frequencies --   1376.5770              1407.4716              1442.0453
 Red. masses --      1.4308                 1.9735                 1.9919
 Frc consts  --      1.5974                 2.3034                 2.4405
 IR Inten    --      5.0014               987.3011              1223.8460

                     52                     53                     54
                     A1                     B2                     B2
 Frequencies --   1483.6045              1496.7086              1523.0188
 Red. masses --      2.0247                 2.5627                 2.4079
 Frc consts  --      2.6257                 3.3824                 3.2908
 IR Inten    --     63.9821               367.5136                13.8217

                     55                     56                     57
                     A1                     B2                     A1
 Frequencies --   1546.3879              1571.5093              1627.1216
 Red. masses --      2.6797                 3.3633                 5.3869
 Frc consts  --      3.7755                 4.8938                 8.4030
 IR Inten    --      0.7587               207.3224                 0.1424

                     58                     59                     60
                     A1                     A1                     B1
 Frequencies --   1659.0930              2966.2412              2975.1119
 Red. masses --      6.4543                 1.0636                 1.0914
 Frc consts  --     10.4675                 5.5137                 5.6918
 IR Inten    --     18.7011                 4.1868                 1.6008

                     61                     62                     63
                     B2                     A1                     B2
 Frequencies --   3202.2892              3202.6691              3209.1369
 Red. masses --      1.0903                 1.0908                 1.0909
 Frc consts  --      6.5874                 6.5918                 6.6195
 IR Inten    --     32.1725                 0.8485                 1.8271

                     64                     65                     66
                     A1                     A1                     B2
 Frequencies --   3209.2347              3226.6141              3227.2953
 Red. masses --      1.0910                 1.0906                 1.0923
 Frc consts  --      6.6204                 6.6899                 6.7028
 IR Inten    --      0.0603                 0.1800                 1.7997

                     67                     68                     69
                     A1                     B2                     A1
 Frequencies --   3227.3865              3241.0422              3241.9704
 Red. masses --      1.0921                 1.0972                 1.0980
 Frc consts  --      6.7020                 6.7907                 6.7991
 IR Inten    --      0.0525                81.3434                 0.1538

 - Thermochemistry -
 -------------------
 Temperature   298.150 Kelvin.  Pressure   1.00000 Atm.
 Atom     1 has atomic number  6 and mass  12.00000

 Molecular mass:   179.08608 amu.
 Principal axes and moments of inertia in atomic units:
                           1         2         3
     Eigenvalues --   842.713684051.980814884.05710
           X            0.00000   0.00000   1.00000
           Y            1.00000   0.00000  -0.00000
           Z           -0.00000   1.00000  -0.00000
 This molecule is an asymmetric top.
 Rotational symmetry number  2.
 Warning -- assumption of classical behavior for rotation
           may cause significant error
 Rotational temperatures (Kelvin)      0.10278     0.02138     0.01773
 Rotational constants (GHZ):           2.14158     0.44540     0.36952
    1 imaginary frequencies ignored.
 Zero-point vibrational energy     530017.0 (Joules/Mol)
                                  126.67711 (Kcal/Mol)
 Warning -- explicit consideration of  15 degrees of freedom as
           vibrations may cause significant error
 Vibrational temperatures:     87.09   156.46   289.20   321.78   339.22
          (Kelvin)            407.86   546.59   558.86   564.19   605.71
                              690.72   724.27   812.29   842.74   889.20
                              971.17   974.50  1053.23  1090.74  1103.36
                             1128.82  1171.95  1263.38  1300.67  1305.81
                             1314.60  1335.33  1339.08  1428.42  1441.76
                             1478.72  1481.13  1541.90  1577.72  1600.22
                             1656.17  1666.70  1713.29  1734.43  1739.05
                             1778.69  1827.16  1841.27  1904.08  1942.06
                             1944.05  1978.35  1980.59  2025.04  2074.78
                             2134.58  2153.43  2191.28  2224.91  2261.05
                             2341.07  2387.06  4267.76  4280.52  4607.38
                             4607.93  4617.23  4617.37  4642.38  4643.36
                             4643.49  4663.14  4664.47

 Zero-point correction=                           0.201873 (Hartree/Particle)
 Thermal correction to Energy=                    0.211912
 Thermal correction to Enthalpy=                  0.212857
 Thermal correction to Gibbs Free Energy=         0.166858
 Sum of electronic and zero-point Energies=           -539.546564
 Sum of electronic and thermal Energies=              -539.536524
 Sum of electronic and thermal Enthalpies=            -539.535580
 Sum of electronic and thermal Free Energies=         -539.581578

                     E (Thermal)             CV                S
                      KCal/Mol        Cal/Mol-Kelvin    Cal/Mol-Kelvin
 Total                  132.977             41.952             96.813
 Electronic               0.000              0.000              0.000
 Translational            0.889              2.981             41.455
 Rotational               0.889              2.981             29.812
 Vibrational            131.200             35.990             25.545
 Vibration     1          0.597              1.973              4.440
 Vibration     2          0.606              1.942              3.291
 Vibration     3          0.638              1.838              2.124
 Vibration     4          0.649              1.805              1.929
 Vibration     5          0.655              1.786              1.835
 Vibration     6          0.682              1.704              1.513
 Vibration     7          0.750              1.513              1.040
 Vibration     8          0.757              1.495              1.006
 Vibration     9          0.760              1.487              0.992
 Vibration    10          0.783              1.425              0.889
 Vibration    11          0.836              1.294              0.710
 Vibration    12          0.859              1.242              0.650
 Vibration    13          0.920              1.108              0.515
 Vibration    14          0.943              1.062              0.475
 Vibration    15          0.978              0.994              0.420

 Normal termination of Gaussian 16 at Fri Jul 15 12:30:48 2022.
