 Gaussian 16, Revision C.01,
 Gaussian 16:  ES64L-G16RevC.01  3-Jul-2019

 ---------------------------------------------------------
 #n wB97XD/6-311++G(d,p) TD Opt=(TS,CalcAll) Geom=AllCheck
 ---------------------------------------------------------

 Structure from the checkpoint file:  "check_ts2.chk"
 -----
 Title
 -----
 Charge =  1 Multiplicity = 1

 SCF Done:  E(RwB97XD) =  -539.803598899     A.U. after   15 cycles
 Total Energy, E(TD-HF/TD-DFT) =  -539.699171952
 SCF Done:  E(RwB97XD) =  -539.803894357     A.U. after   11 cycles

 Excitation energies and oscillator strengths:

 Excited State   1:      Singlet-A1     2.8485 eV  435.26 nm  f=0.0307  <S**2>=0.000
      47 -> 48         0.70248
 This state for optimization and/or second-order correction.
 Total Energy, E(TD-HF/TD-DFT) =  -539.699213912
 Copying the excited state density for this state as the 1-particle RhoCI density.

 Excited State   2:      Singlet-B2     3.2686 eV  379.32 nm  f=0.0068  <S**2>=0.000
      45 -> 48         0.62595
      46 -> 48        -0.31024

 Excited State   3:      Singlet-B2     3.4927 eV  354.98 nm  f=0.5601  <S**2>=0.000
      45 -> 48         0.31362
      46 -> 48         0.62126

 Optimization completed.
    -- Stationary point found.

                         Standard orientation:
 ---------------------------------------------------------------------
 Center     Atomic      Atomic             Coordinates (Angstroms)
 Number     Number       Type             X           Y           Z
 ---------------------------------------------------------------------
      1          6           0        0.000000    2.497809    1.362283
      2          6           0        0.000000    3.706989    0.671351
      3          6           0        0.000000    3.688559   -0.716443
      4          6           0        0.000000    2.466019   -1.410001
      5          6           0       -0.000000   -2.466019   -1.410001
      6          6           0       -0.000000   -3.688559   -0.716443
      7          6           0       -0.000000   -3.706989    0.671351
      8          6           0       -0.000000   -2.497809    1.362283
      9          6           0       -0.000000    0.000000    1.457675
     10          6           0        0.000000    0.000000   -1.429525
     11          6           0        0.000000    1.264136    0.678748
     12          6           0        0.000000    1.240758   -0.729821
     13          6           0       -0.000000   -1.264136    0.678748
     14          6           0       -0.000000   -1.240758   -0.729821
     15          1           0        0.000000    2.497657    2.447581
     16          1           0        0.000000    4.644857    1.211440
     17          1           0        0.000000    4.615918   -1.276423
     18          1           0        0.000000    2.471627   -2.494682
     19          1           0        0.000000   -0.000000   -2.512273
     20          1           0       -0.000000   -2.471627   -2.494682
     21          1           0       -0.000000   -4.615918   -1.276423
     22          1           0       -0.000000   -4.644857    1.211440
     23          1           0       -0.000000   -2.497657    2.447581
     24          1           0       -0.863593    0.000000    2.147070
     25          1           0        0.863593   -0.000000    2.147070
 ---------------------------------------------------------------------

 The electronic state is 1-A1.
 Alpha  occ. eigenvalues --  -10.52262 -10.47825 -10.47825 -10.47012 -10.47011
 Alpha  occ. eigenvalues --  -10.45887 -10.45887 -10.45625 -10.45507 -10.45507
 Alpha  occ. eigenvalues --  -10.44480 -10.44480 -10.44160 -10.44160  -1.16021
 Alpha  occ. eigenvalues --   -1.12209  -1.06956  -1.05821  -1.01621  -1.00529
 Alpha  occ. eigenvalues --   -0.96340  -0.91893  -0.87522  -0.87038  -0.84966
 Alpha  occ. eigenvalues --   -0.79780  -0.77595  -0.76010  -0.71327  -0.70978
 Alpha  occ. eigenvalues --   -0.70319  -0.70115  -0.69936  -0.66665  -0.66191
 Alpha  occ. eigenvalues --   -0.65116  -0.63887  -0.62090  -0.61688  -0.61233
 Alpha  occ. eigenvalues --   -0.59131  -0.57564  -0.57248  -0.54630  -0.48938
 Alpha  occ. eigenvalues --   -0.48204  -0.46820
 Alpha virt. eigenvalues --   -0.22626  -0.11021  -0.10584  -0.09284  -0.06565
 Alpha virt. eigenvalues --   -0.05594  -0.04902  -0.04071  -0.03572  -0.03244
 Alpha virt. eigenvalues --   -0.02651  -0.02555  -0.01464  -0.01419  -0.00522

 Mulliken charges:
               1
     1  C    0.172092
     2  C   -0.374454
     3  C   -0.439525
     4  C    0.029585
     5  C    0.029585
     6  C   -0.439525
     7  C   -0.374454
     8  C    0.172092
     9  C   -0.434361
    10  C   -0.084945
    11  C   -0.559040
    12  C    0.534071
    13  C   -0.559040
    14  C    0.534071
    15  H    0.248826
    16  H    0.272992
    17  H    0.265426
    18  H    0.235864
    19  H    0.217082
    20  H    0.235864
    21  H    0.265426
    22  H    0.272992
    23  H    0.248826
    24  H    0.265275
    25  H    0.265275
 Sum of Mulliken charges =   1.00000

 Dipole moment (field-independent basis, Debye):
    X=             -0.0000    Y=             -0.0000    Z=             -0.2218  Tot=              0.2218
 Quadrupole moment (field-independent basis, Debye-Ang):
   XX=            -83.3803   YY=            -30.8297   ZZ=            -55.7082
   XY=              0.0000   XZ=              0.0000   YZ=             -0.0000

  Exact polarizability:     915.803       0.000     154.936       0.000       0.000      75.823
 Approx polarizability:      96.001       0.000     276.259      -0.000       0.000     197.987

 ******    1 imaginary frequencies (negative Signs) ******

                      1                      2                      3
                     B2                     B1                     A2
 Frequencies --   -211.1188                54.9552               106.5995
 Red. masses --      6.1051                 3.7134                 3.6457
 Frc consts  --      0.1603                 0.0066                 0.0244
 IR Inten    --  17633.5703                 0.0808                 0.0000

                      4                      5                      6
                     B1                     A2                     A1
 Frequencies --    189.0732               222.0392               236.3005
 Red. masses --      2.0075                 4.6519                 4.3846
 Frc consts  --      0.0423                 0.1351                 0.1442
 IR Inten    --     10.2879                 0.0000                 0.0726

                      7                      8                      9
                     B1                     A1                     B1
 Frequencies --    276.0290               378.8204               383.6947
 Red. masses --      2.8705                 6.8242                 2.5005
 Frc consts  --      0.1289                 0.5770                 0.2169
 IR Inten    --      3.3718                 0.0211                12.6744

                     10                     11                     12
                     B2                     A2                     A2
 Frequencies --    392.3137               416.6945               472.9603
 Red. masses --      4.4044                 2.9165                 3.0410
 Frc consts  --      0.3994                 0.2984                 0.4008
 IR Inten    --    221.4140                 0.0000                 0.0000

                     13                     14                     15
                     B1                     B2                     B1
 Frequencies --    494.1265               563.9043               570.0376
 Red. masses --      2.3796                 6.7526                 2.3556
 Frc consts  --      0.3423                 1.2651                 0.4510
 IR Inten    --      9.7129               405.1354                 0.1159

                     16                     17                     18
                     A1                     A2                     A1
 Frequencies --    616.7701               654.6302               672.9272
 Red. masses --      6.4476                 3.1783                 5.9504
 Frc consts  --      1.4451                 0.8025                 1.5876
 IR Inten    --      0.8688                 0.0000                 0.7381

                     19                     20                     21
                     B1                     A1                     A2
 Frequencies --    725.0771               755.9898               762.1148
 Red. masses --      1.2376                 5.3432                 1.2318
 Frc consts  --      0.3834                 1.7992                 0.4215
 IR Inten    --     13.8555                 0.6216                 0.0000

                     22                     23                     24
                     B1                     B2                     B1
 Frequencies --    775.9782               811.4937               864.8913
 Red. masses --      1.4693                 4.0684                 2.1780
 Frc consts  --      0.5213                 1.5785                 0.9599
 IR Inten    --    101.5922               858.4235                19.1207

                     25                     26                     27
                     A2                     A1                     B1
 Frequencies --    892.7450               900.0602               903.7958
 Red. masses --      1.4426                 5.5662                 1.7015
 Frc consts  --      0.6774                 2.6568                 0.8189
 IR Inten    --      0.0000                 1.6196                 1.9030

                     28                     29                     30
                     B2                     B2                     A2
 Frequencies --    908.8893               925.2944               982.5209
 Red. masses --      3.0094                 3.6915                 1.4097
 Frc consts  --      1.4647                 1.8621                 0.8018
 IR Inten    --   4574.8584              6200.5925                 0.0000

                     31                     32                     33
                     B1                     A2                     B1
 Frequencies --    991.5911              1007.8697              1010.0626
 Red. masses --      1.4599                 1.4121                 1.4112
 Frc consts  --      0.8458                 0.8451                 0.8483
 IR Inten    --      3.1433                 0.0000                 1.1828

                     34                     35                     36
                     A1                     B2                     B2
 Frequencies --   1068.8280              1092.9369              1110.1367
 Red. masses --      2.4205                 1.9192                 2.0224
 Frc consts  --      1.6292                 1.3507                 1.4685
 IR Inten    --      1.5354              1102.7510                25.1307

                     37                     38                     39
                     A1                     A2                     B2
 Frequencies --   1148.3850              1157.9684              1189.1988
 Red. masses --      1.6129                 1.1239                 1.2130
 Frc consts  --      1.2532                 0.8879                 1.0107
 IR Inten    --      0.0255                 0.0000                 2.3290

                     40                     41                     42
                     A1                     B2                     A1
 Frequencies --   1203.0370              1205.1444              1233.9296
 Red. masses --      1.1300                 1.5969                 4.2394
 Frc consts  --      0.9636                 1.3665                 3.8030
 IR Inten    --      4.3722                 0.3975                 2.2611

                     43                     44                     45
                     B2                     A1                     A1
 Frequencies --   1266.5288              1275.6763              1318.1358
 Red. masses --      1.9513                 3.6564                 1.5745
 Frc consts  --      1.8441                 3.5058                 1.6118
 IR Inten    --    240.1873                 0.8347                 0.0128

                     46                     47                     48
                     A1                     B2                     B2
 Frequencies --   1350.3525              1351.9268              1370.0226
 Red. masses --      2.4846                 4.4217                 2.3015
 Frc consts  --      2.6694                 4.7615                 2.5452
 IR Inten    --     55.5428               431.4701              1831.7348

                     49                     50                     51
                     A1                     B2                     B2
 Frequencies --   1377.6432              1402.8341              1438.6193
 Red. masses --      1.4198                 1.9146                 2.0683
 Frc consts  --      1.5876                 2.2200                 2.5221
 IR Inten    --      4.5209               851.5810              1114.4446

                     52                     53                     54
                     A1                     B2                     B2
 Frequencies --   1477.0104              1493.5080              1517.9646
 Red. masses --      2.0499                 2.6653                 2.4535
 Frc consts  --      2.6348                 3.5028                 3.3309
 IR Inten    --     65.4317               412.6264                 4.5621

                     55                     56                     57
                     A1                     B2                     A1
 Frequencies --   1540.9971              1568.8852              1625.8107
 Red. masses --      2.7069                 3.4932                 5.4829
 Frc consts  --      3.7872                 5.0659                 8.5389
 IR Inten    --      0.7766               204.0703                 0.0879

                     58                     59                     60
                     A1                     A1                     B1
 Frequencies --   1658.6177              2964.1762              2975.5144
 Red. masses --      6.5611                 1.0636                 1.0919
 Frc consts  --     10.6346                 5.5060                 5.6958
 IR Inten    --     19.2410                 3.7516                 1.6041

                     61                     62                     63
                     B2                     A1                     B2
 Frequencies --   3196.9712              3197.3760              3204.2218
 Red. masses --      1.0905                 1.0910                 1.0911
 Frc consts  --      6.5668                 6.5713                 6.6004
 IR Inten    --     34.8855                 0.9264                 1.8303

                     64                     65                     66
                     A1                     B2                     A1
 Frequencies --   3204.2743              3221.4057              3221.4278
 Red. masses --      1.0912                 1.0926                 1.0926
 Frc consts  --      6.6011                 6.6804                 6.6802
 IR Inten    --      0.0737                 1.9714                 0.0131

                     67                     68                     69
                     A1                     B2                     A1
 Frequencies --   3222.1191              3234.7954              3235.7636
 Red. masses --      1.0908                 1.0977                 1.0985
 Frc consts  --      6.6722                 6.7677                 6.7765
 IR Inten    --      0.2684                91.6303                 0.1568

 - Thermochemistry -
 -------------------
 Temperature   298.150 Kelvin.  Pressure   1.00000 Atm.
 Atom     1 has atomic number  6 and mass  12.00000

 Molecular mass:   179.08608 amu.
 Principal axes and moments of inertia in atomic units:
                           1         2         3
     Eigenvalues --   847.252434071.535964908.05192
           X            0.00000   0.00000   1.00000
           Y            1.00000   0.00000  -0.00000
           Z            0.00000   1.00000   0.00000
 This molecule is an asymmetric top.
 Rotational symmetry number  2.
 Warning -- assumption of classical behavior for rotation
           may cause significant error
 Rotational temperatures (Kelvin)      0.10223     0.02127     0.01765
 Rotational constants (GHZ):           2.13011     0.44326     0.36771
    1 imaginary frequencies ignored.
 Zero-point vibrational energy     527806.7 (Joules/Mol)
                                  126.14883 (Kcal/Mol)
 Warning -- explicit consideration of  15 degrees of freedom as
           vibrations may cause significant error
 Vibrational temperatures:     79.07   153.37   272.03   319.46   339.98
          (Kelvin)            397.14   545.04   552.05   564.45   599.53
                              680.48   710.94   811.33   820.16   887.39
                              941.87   968.19  1043.22  1087.70  1096.51
                             1116.46  1167.56  1244.39  1284.46  1294.99
                             1300.36  1307.69  1331.29  1413.63  1426.68
                             1450.10  1453.25  1537.81  1572.49  1597.24
                             1652.27  1666.06  1710.99  1730.90  1733.93
                             1775.35  1822.25  1835.41  1896.50  1942.86
                             1945.12  1971.16  1982.12  2018.37  2069.85
                             2125.09  2148.82  2184.01  2217.15  2257.28
                             2339.18  2386.38  4264.79  4281.10  4599.73
                             4600.31  4610.16  4610.24  4634.88  4634.92
                             4635.91  4654.15  4655.54

 Zero-point correction=                           0.201031 (Hartree/Particle)
 Thermal correction to Energy=                    0.211193
 Thermal correction to Enthalpy=                  0.212137
 Thermal correction to Gibbs Free Energy=         0.165831
 Sum of electronic and zero-point Energies=           -539.498183
 Sum of electronic and thermal Energies=              -539.488021
 Sum of electronic and thermal Enthalpies=            -539.487077
 Sum of electronic and thermal Free Energies=         -539.533383

                     E (Thermal)             CV                S
                      KCal/Mol        Cal/Mol-Kelvin    Cal/Mol-Kelvin
 Total                  132.526             42.364             97.460
 Electronic               0.000              0.000              0.000
 Translational            0.889              2.981             41.455
 Rotational               0.889              2.981             29.827
 Vibrational            130.748             36.402             26.178
 Vibration     1          0.596              1.976              4.631
 Vibration     2          0.605              1.944              3.330
 Vibration     3          0.633              1.855              2.237
 Vibration     4          0.648              1.808              1.942
 Vibration     5          0.655              1.785              1.831
 Vibration     6          0.678              1.718              1.558
 Vibration     7          0.749              1.515              1.044
 Vibration     8          0.753              1.505              1.025
 Vibration     9          0.760              1.487              0.991
 Vibration    10          0.780              1.434              0.903
 Vibration    11          0.830              1.310              0.729
 Vibration    12          0.850              1.263              0.673
 Vibration    13          0.920              1.109              0.516
 Vibration    14          0.926              1.096              0.504
 Vibration    15          0.976              0.996              0.422

 Normal termination of Gaussian 16 at Thu Jul 14 23:23:46 2022.
