 Gaussian 16, Revision C.01,
 Gaussian 16:  ES64L-G16RevC.01  3-Jul-2019

 ---------------------------------------------------------------
 #n M062X/6-311++G(d,p) TD(NStates=1) EmpiricalDispersion=GD3 SP
 ---------------------------------------------------------------

 ----
 SP_6
 ----
 Symbolic Z-matrix:
 Charge =  1 Multiplicity = 1

                         Standard orientation:
 ---------------------------------------------------------------------
 Center     Atomic      Atomic             Coordinates (Angstroms)
 Number     Number       Type             X           Y           Z
 ---------------------------------------------------------------------
      1          6           0       -2.360452   -1.558083    0.000000
      2          6           0       -2.314514   -2.954274    0.000000
      3          6           0       -1.078277   -3.591245    0.000000
      4          6           0        0.092756   -2.846952    0.000000
      5          6           0        2.386257    1.512917    0.000000
      6          6           0        2.345103    2.932875    0.000000
      7          6           0        1.133833    3.596576    0.000000
      8          6           0       -0.033747    2.850971    0.000000
      9          6           0       -1.284516    0.679928    0.000000
     10          6           0        1.252771   -0.688268    0.000000
     11          6           0       -1.200676   -0.797111    0.000000
     12          6           0        0.074615   -1.440748    0.000000
     13          6           0        0.000000    1.423282    0.000000
     14          6           0        1.216256    0.755211    0.000000
     15          1           0       -3.326955   -1.067771    0.000000
     16          1           0       -3.225150   -3.535627    0.000000
     17          1           0       -1.035018   -4.671375    0.000000
     18          1           0        1.057612   -3.338894    0.000000
     19          1           0        2.215714   -1.179885    0.000000
     20          1           0        3.354509    1.029120    0.000000
     21          1           0        3.280715    3.474533    0.000000
     22          1           0        1.086184    4.674777    0.000000
     23          1           0       -1.003822    3.332802    0.000000
     24          1           0       -1.890123    1.015921    0.859585
     25          1           0       -1.890123    1.015921   -0.859585
 ---------------------------------------------------------------------

 SCF Done:  E(RM062X) =  -539.758003619     A.U. after   15 cycles

 Excitation energies and oscillator strengths:

 Excited State   1:      Singlet-A'     2.7757 eV  446.67 nm  f=0.0244  <S**2>=0.000
      47 -> 48         0.70378
 This state for optimization and/or second-order correction.
 Total Energy, E(TD-HF/TD-DFT) =  -539.655997867
 Copying the excited state density for this state as the 1-particle RhoCI density.

 The electronic state is 1-A'.
 Alpha  occ. eigenvalues --  -10.77615 -10.73648 -10.72803 -10.72700 -10.72124
 Alpha  occ. eigenvalues --  -10.71801 -10.71746 -10.70975 -10.70930 -10.70296
 Alpha  occ. eigenvalues --  -10.70204 -10.69912 -10.69739 -10.69351  -1.16472
 Alpha  occ. eigenvalues --   -1.12462  -1.06961  -1.05791  -1.01283  -1.00214
 Alpha  occ. eigenvalues --   -0.95748  -0.91072  -0.86410  -0.85891  -0.83799
 Alpha  occ. eigenvalues --   -0.78387  -0.76061  -0.74405  -0.69784  -0.69191
 Alpha  occ. eigenvalues --   -0.68426  -0.68102  -0.68093  -0.64956  -0.64200
 Alpha  occ. eigenvalues --   -0.62924  -0.61820  -0.60175  -0.59519  -0.59209
 Alpha  occ. eigenvalues --   -0.56836  -0.55339  -0.54596  -0.52452  -0.46838
 Alpha  occ. eigenvalues --   -0.46085  -0.44272
 Alpha virt. eigenvalues --   -0.26102  -0.14662  -0.14082  -0.12762  -0.11184
 Alpha virt. eigenvalues --   -0.10090  -0.09244  -0.07976  -0.07947  -0.07478
 Alpha virt. eigenvalues --   -0.07206  -0.07139  -0.05643  -0.05579  -0.05341

 Mulliken charges:
               1
     1  C    0.089499
     2  C   -0.392828
     3  C   -0.433144
     4  C    0.054472
     5  C   -0.032681
     6  C   -0.446960
     7  C   -0.419217
     8  C    0.095355
     9  C   -0.341020
    10  C    0.088725
    11  C   -0.641411
    12  C    0.670995
    13  C   -0.627875
    14  C    0.716041
    15  H    0.239708
    16  H    0.259259
    17  H    0.252044
    18  H    0.222839
    19  H    0.190221
    20  H    0.221484
    21  H    0.245814
    22  H    0.253370
    23  H    0.235409
    24  H    0.249950
    25  H    0.249950
 Sum of Mulliken charges =   1.00000

 Dipole moment (field-independent basis, Debye):
    X=             -0.1938    Y=             -0.7560    Z=             -0.0000  Tot=              0.7804
 Quadrupole moment (field-independent basis, Debye-Ang):
   XX=            -50.7155   YY=            -36.6156   ZZ=            -84.1357
   XY=             10.4521   XZ=             -0.0000   YZ=              0.0000

 Normal termination of Gaussian 16 at Thu Jul 28 14:28:37 2022.
