 Gaussian 16, Revision C.01,
 Gaussian 16:  ES64L-G16RevC.01  3-Jul-2019

 ---------------------------------------------------------------
 #n M062X/6-311++G(d,p) TD(NStates=1) EmpiricalDispersion=GD3 SP
 ---------------------------------------------------------------

 ----
 SP_8
 ----
 Symbolic Z-matrix:
 Charge =  1 Multiplicity = 1

                         Standard orientation:
 ---------------------------------------------------------------------
 Center     Atomic      Atomic             Coordinates (Angstroms)
 Number     Number       Type             X           Y           Z
 ---------------------------------------------------------------------
      1          6           0       -2.362226   -1.553243    0.000000
      2          6           0       -2.315068   -2.947608    0.000000
      3          6           0       -1.079569   -3.589435    0.000000
      4          6           0        0.088403   -2.852129    0.000000
      5          6           0        2.384400    1.506435    0.000000
      6          6           0        2.347355    2.932846    0.000000
      7          6           0        1.139689    3.599869    0.000000
      8          6           0       -0.028712    2.852211    0.000000
      9          6           0       -1.282088    0.684510    0.000000
     10          6           0        1.250477   -0.692526    0.000000
     11          6           0       -1.202514   -0.798326    0.000000
     12          6           0        0.067748   -1.442572    0.000000
     13          6           0        0.000000    1.421054    0.000000
     14          6           0        1.218613    0.748529    0.000000
     15          1           0       -3.325211   -1.056661    0.000000
     16          1           0       -3.228623   -3.524268    0.000000
     17          1           0       -1.036633   -4.669390    0.000000
     18          1           0        1.050301   -3.349278    0.000000
     19          1           0        2.210171   -1.190325    0.000000
     20          1           0        3.350059    1.017239    0.000000
     21          1           0        3.283250    3.474308    0.000000
     22          1           0        1.097560    4.678314    0.000000
     23          1           0       -0.995636    3.340505    0.000000
     24          1           0       -1.882145    1.030933    0.859585
     25          1           0       -1.882145    1.030933   -0.859585
 ---------------------------------------------------------------------

 SCF Done:  E(RM062X) =  -539.757626562     A.U. after   15 cycles

 Excitation energies and oscillator strengths:

 Excited State   1:      Singlet-A'     2.7541 eV  450.17 nm  f=0.0233  <S**2>=0.000
      47 -> 48         0.70370
 This state for optimization and/or second-order correction.
 Total Energy, E(TD-HF/TD-DFT) =  -539.656413757
 Copying the excited state density for this state as the 1-particle RhoCI density.

 The electronic state is 1-A'.
 Alpha  occ. eigenvalues --  -10.77617 -10.73626 -10.72832 -10.72715 -10.72111
 Alpha  occ. eigenvalues --  -10.71756 -10.71741 -10.70979 -10.70975 -10.70290
 Alpha  occ. eigenvalues --  -10.70170 -10.69861 -10.69774 -10.69395  -1.16481
 Alpha  occ. eigenvalues --   -1.12466  -1.06950  -1.05791  -1.01292  -1.00255
 Alpha  occ. eigenvalues --   -0.95714  -0.91059  -0.86420  -0.85892  -0.83804
 Alpha  occ. eigenvalues --   -0.78374  -0.76076  -0.74397  -0.69744  -0.69222
 Alpha  occ. eigenvalues --   -0.68417  -0.68107  -0.68097  -0.64986  -0.64236
 Alpha  occ. eigenvalues --   -0.62893  -0.61792  -0.60228  -0.59466  -0.59188
 Alpha  occ. eigenvalues --   -0.56856  -0.55350  -0.54590  -0.52445  -0.46921
 Alpha  occ. eigenvalues --   -0.46095  -0.44185
 Alpha virt. eigenvalues --   -0.26101  -0.14667  -0.14081  -0.12764  -0.11184
 Alpha virt. eigenvalues --   -0.10090  -0.09244  -0.07973  -0.07946  -0.07479
 Alpha virt. eigenvalues --   -0.07207  -0.07139  -0.05644  -0.05578  -0.05341

 Mulliken charges:
               1
     1  C    0.083453
     2  C   -0.398430
     3  C   -0.434307
     4  C    0.043444
     5  C   -0.017539
     6  C   -0.446057
     7  C   -0.414440
     8  C    0.101800
     9  C   -0.338235
    10  C    0.090220
    11  C   -0.642202
    12  C    0.685898
    13  C   -0.626149
    14  C    0.692708
    15  H    0.239217
    16  H    0.259523
    17  H    0.251519
    18  H    0.223570
    19  H    0.190110
    20  H    0.220685
    21  H    0.246288
    22  H    0.253132
    23  H    0.235665
    24  H    0.250064
    25  H    0.250064
 Sum of Mulliken charges =   1.00000

 Dipole moment (field-independent basis, Debye):
    X=             -0.1977    Y=             -0.7569    Z=             -0.0000  Tot=              0.7823
 Quadrupole moment (field-independent basis, Debye-Ang):
   XX=            -50.8114   YY=            -36.5158   ZZ=            -84.1355
   XY=             10.3871   XZ=              0.0000   YZ=             -0.0000

 Normal termination of Gaussian 16 at Thu Jul 28 14:37:40 2022.
