 Gaussian 16, Revision C.01,
 Gaussian 16:  ES64L-G16RevC.01  3-Jul-2019

 ---------------------------------------------------------------
 #n M062X/6-311++G(d,p) TD(NStates=1) EmpiricalDispersion=GD3 SP
 ---------------------------------------------------------------

 -----
 SP_-6
 -----
 Symbolic Z-matrix:
 Charge =  1 Multiplicity = 1

                         Standard orientation:
 ---------------------------------------------------------------------
 Center     Atomic      Atomic             Coordinates (Angstroms)
 Number     Number       Type             X           Y           Z
 ---------------------------------------------------------------------
      1          6           0        0.010955    2.844842    0.000000
      2          6           0       -1.167100    3.590678    0.000000
      3          6           0       -2.370916    2.913443    0.000000
      4          6           0       -2.396547    1.491118    0.000000
      5          6           0       -0.068688   -2.850514    0.000000
      6          6           0        1.108789   -3.580814    0.000000
      7          6           0        2.337808   -2.930087    0.000000
      8          6           0        2.378085   -1.542642    0.000000
      9          6           0        1.275561    0.696624    0.000000
     10          6           0       -1.252529   -0.688391    0.000000
     11          6           0        0.000000    1.425098    0.000000
     12          6           0       -1.232000    0.730916    0.000000
     13          6           0        1.199200   -0.795950    0.000000
     14          6           0       -0.045577   -1.441159    0.000000
     15          1           0        0.962613    3.363099    0.000000
     16          1           0       -1.144080    4.670224    0.000000
     17          1           0       -3.302475    3.462445    0.000000
     18          1           0       -3.348642    0.975136    0.000000
     19          1           0       -2.199301   -1.210358    0.000000
     20          1           0       -1.015908   -3.373851    0.000000
     21          1           0        1.057177   -4.660052    0.000000
     22          1           0        3.261034   -3.490223    0.000000
     23          1           0        3.324687   -1.016695    0.000000
     24          1           0        1.871327    1.050649    0.859585
     25          1           0        1.871327    1.050649   -0.859585
 ---------------------------------------------------------------------

 SCF Done:  E(RM062X) =  -539.758621890     A.U. after   15 cycles

 Excitation energies and oscillator strengths:

 Excited State   1:      Singlet-A'     2.7923 eV  444.01 nm  f=0.0272  <S**2>=0.000
      47 -> 48         0.70373
 This state for optimization and/or second-order correction.
 Total Energy, E(TD-HF/TD-DFT) =  -539.656004949
 Copying the excited state density for this state as the 1-particle RhoCI density.

 The electronic state is 1-A'.
 Alpha  occ. eigenvalues --  -10.77665 -10.73267 -10.73221 -10.72526 -10.72343
 Alpha  occ. eigenvalues --  -10.71401 -10.71325 -10.71169 -10.70986 -10.70842
 Alpha  occ. eigenvalues --  -10.70009 -10.69935 -10.69683 -10.69568  -1.16458
 Alpha  occ. eigenvalues --   -1.12476  -1.06937  -1.05746  -1.01321  -1.00243
 Alpha  occ. eigenvalues --   -0.95741  -0.91050  -0.86427  -0.85897  -0.83814
 Alpha  occ. eigenvalues --   -0.78388  -0.76045  -0.74405  -0.69567  -0.69246
 Alpha  occ. eigenvalues --   -0.68506  -0.68188  -0.68102  -0.64776  -0.64320
 Alpha  occ. eigenvalues --   -0.63018  -0.61823  -0.60105  -0.59586  -0.59082
 Alpha  occ. eigenvalues --   -0.56913  -0.55217  -0.54806  -0.52435  -0.46718
 Alpha  occ. eigenvalues --   -0.46084  -0.44387
 Alpha virt. eigenvalues --   -0.26088  -0.14695  -0.14077  -0.12768  -0.11179
 Alpha virt. eigenvalues --   -0.10087  -0.09231  -0.07982  -0.07965  -0.07476
 Alpha virt. eigenvalues --   -0.07203  -0.07144  -0.05644  -0.05581  -0.05334

 Mulliken charges:
               1
     1  C    0.109014
     2  C   -0.396820
     3  C   -0.438261
     4  C    0.035882
     5  C   -0.009626
     6  C   -0.440280
     7  C   -0.416956
     8  C    0.078038
     9  C   -0.335564
    10  C    0.091121
    11  C   -0.631976
    12  C    0.648883
    13  C   -0.642149
    14  C    0.729292
    15  H    0.237755
    16  H    0.255123
    17  H    0.249400
    18  H    0.219959
    19  H    0.190341
    20  H    0.223898
    21  H    0.248252
    22  H    0.257503
    23  H    0.236785
    24  H    0.250194
    25  H    0.250194
 Sum of Mulliken charges =   1.00000

 Dipole moment (field-independent basis, Debye):
    X=             -0.0890    Y=             -0.2271    Z=             -0.0000  Tot=              0.2439
 Quadrupole moment (field-independent basis, Debye-Ang):
   XX=            -50.8968   YY=            -36.4872   ZZ=            -84.1404
   XY=            -10.3106   XZ=             -0.0000   YZ=             -0.0000

 Normal termination of Gaussian 16 at Thu Jul 28 13:42:45 2022.
