 Gaussian 16, Revision C.01,
 Gaussian 16:  ES64L-G16RevC.01  3-Jul-2019

 ---------------------------------------------------------------
 #n M062X/6-311++G(d,p) TD(NStates=1) EmpiricalDispersion=GD3 SP
 ---------------------------------------------------------------

 ----
 SP_6
 ----
 Symbolic Z-matrix:
 Charge =  1 Multiplicity = 1

                         Standard orientation:
 ---------------------------------------------------------------------
 Center     Atomic      Atomic             Coordinates (Angstroms)
 Number     Number       Type             X           Y           Z
 ---------------------------------------------------------------------
      1          6           0       -2.382474   -1.538760    0.000000
      2          6           0       -2.343583   -2.924020    0.000000
      3          6           0       -1.116389   -3.578170    0.000000
      4          6           0        0.062673   -2.851372    0.000000
      5          6           0        2.399083    1.485667    0.000000
      6          6           0        2.377335    2.908558    0.000000
      7          6           0        1.175402    3.589160    0.000000
      8          6           0       -0.005285    2.843281    0.000000
      9          6           0       -1.273294    0.700777    0.000000
     10          6           0        1.252486   -0.688425    0.000000
     11          6           0       -1.198840   -0.795678    0.000000
     12          6           0        0.038322   -1.441199    0.000000
     13          6           0        0.000000    1.425569    0.000000
     14          6           0        1.235881    0.724813    0.000000
     15          1           0       -3.324015   -1.003957    0.000000
     16          1           0       -3.269906   -3.478827    0.000000
     17          1           0       -1.062682   -4.657221    0.000000
     18          1           0        1.005410   -3.382512    0.000000
     19          1           0        2.195145   -1.217937    0.000000
     20          1           0        3.347064    0.961681    0.000000
     21          1           0        3.307910    3.459417    0.000000
     22          1           0        1.158539    4.668987    0.000000
     23          1           0       -0.952251    3.370597    0.000000
     24          1           0       -1.866560    1.059285    0.859585
     25          1           0       -1.866560    1.059285   -0.859585
 ---------------------------------------------------------------------

 SCF Done:  E(RM062X) =  -539.757961150     A.U. after   15 cycles

 Excitation energies and oscillator strengths:

 Excited State   1:      Singlet-A'     2.7949 eV  443.60 nm  f=0.0280  <S**2>=0.000
      47 -> 48         0.70353
 This state for optimization and/or second-order correction.
 Total Energy, E(TD-HF/TD-DFT) =  -539.655249553
 Copying the excited state density for this state as the 1-particle RhoCI density.

 The electronic state is 1-A'.
 Alpha  occ. eigenvalues --  -10.77667 -10.73322 -10.73167 -10.72477 -10.72393
 Alpha  occ. eigenvalues --  -10.71522 -10.71209 -10.71026 -10.70988 -10.70980
 Alpha  occ. eigenvalues --  -10.70076 -10.69867 -10.69768 -10.69484  -1.16459
 Alpha  occ. eigenvalues --   -1.12481  -1.06939  -1.05753  -1.01321  -1.00247
 Alpha  occ. eigenvalues --   -0.95743  -0.91056  -0.86425  -0.85894  -0.83810
 Alpha  occ. eigenvalues --   -0.78391  -0.76043  -0.74403  -0.69606  -0.69207
 Alpha  occ. eigenvalues --   -0.68518  -0.68181  -0.68105  -0.64761  -0.64316
 Alpha  occ. eigenvalues --   -0.63030  -0.61817  -0.60093  -0.59603  -0.59085
 Alpha  occ. eigenvalues --   -0.56911  -0.55190  -0.54816  -0.52438  -0.46692
 Alpha  occ. eigenvalues --   -0.46087  -0.44408
 Alpha virt. eigenvalues --   -0.26089  -0.14708  -0.14065  -0.12764  -0.11179
 Alpha virt. eigenvalues --   -0.10088  -0.09230  -0.07984  -0.07964  -0.07476
 Alpha virt. eigenvalues --   -0.07203  -0.07144  -0.05644  -0.05582  -0.05335

 Mulliken charges:
               1
     1  C    0.075295
     2  C   -0.422511
     3  C   -0.441492
     4  C   -0.029131
     5  C    0.050264
     6  C   -0.435757
     7  C   -0.390756
     8  C    0.112597
     9  C   -0.338514
    10  C    0.088713
    11  C   -0.642233
    12  C    0.749661
    13  C   -0.632963
    14  C    0.637321
    15  H    0.236189
    16  H    0.257059
    17  H    0.247302
    18  H    0.224167
    19  H    0.190406
    20  H    0.219607
    21  H    0.250293
    22  H    0.255557
    23  H    0.238478
    24  H    0.250224
    25  H    0.250224
 Sum of Mulliken charges =   1.00000

 Dipole moment (field-independent basis, Debye):
    X=              0.1612    Y=             -0.0952    Z=              0.0000  Tot=              0.1872
 Quadrupole moment (field-independent basis, Debye-Ang):
   XX=            -50.9446   YY=            -36.4495   ZZ=            -84.1399
   XY=             10.2807   XZ=             -0.0000   YZ=              0.0000

 Normal termination of Gaussian 16 at Thu Jul 28 14:34:22 2022.
