 Gaussian 16, Revision C.01,
 Gaussian 16:  ES64L-G16RevC.01  3-Jul-2019

 ---------------------------------------------------------------
 #n M062X/6-311++G(d,p) TD(NStates=1) EmpiricalDispersion=GD3 SP
 ---------------------------------------------------------------

 ----
 SP_6
 ----
 Symbolic Z-matrix:
 Charge =  1 Multiplicity = 1

                         Standard orientation:
 ---------------------------------------------------------------------
 Center     Atomic      Atomic             Coordinates (Angstroms)
 Number     Number       Type             X           Y           Z
 ---------------------------------------------------------------------
      1          6           0       -2.373688   -1.546515    0.000000
      2          6           0       -2.332014   -2.936145    0.000000
      3          6           0       -1.101178   -3.583444    0.000000
      4          6           0        0.074704   -2.849642    0.000000
      5          6           0        2.393997    1.496569    0.000000
      6          6           0        2.364484    2.918317    0.000000
      7          6           0        1.158792    3.592179    0.000000
      8          6           0       -0.016636    2.846391    0.000000
      9          6           0       -1.277816    0.692463    0.000000
     10          6           0        1.252579   -0.688358    0.000000
     11          6           0       -1.199564   -0.796229    0.000000
     12          6           0        0.052834   -1.441094    0.000000
     13          6           0        0.000000    1.424633    0.000000
     14          6           0        1.228097    0.737008    0.000000
     15          1           0       -3.325316   -1.029445    0.000000
     16          1           0       -3.252122   -3.501600    0.000000
     17          1           0       -1.051658   -4.662883    0.000000
     18          1           0        1.026377   -3.365159    0.000000
     19          1           0        2.203436   -1.202763    0.000000
     20          1           0        3.350176    0.988607    0.000000
     21          1           0        3.297038    3.465471    0.000000
     22          1           0        1.129616    4.671422    0.000000
     23          1           0       -0.972951    3.355571    0.000000
     24          1           0       -1.876068    1.041995    0.859585
     25          1           0       -1.876068    1.041995   -0.859585
 ---------------------------------------------------------------------

 SCF Done:  E(RM062X) =  -539.758956628     A.U. after   15 cycles

 Excitation energies and oscillator strengths:

 Excited State   1:      Singlet-A'     2.7891 eV  444.53 nm  f=0.0264  <S**2>=0.000
      47 -> 48         0.70384
 This state for optimization and/or second-order correction.
 Total Energy, E(TD-HF/TD-DFT) =  -539.656458426
 Copying the excited state density for this state as the 1-particle RhoCI density.

 The electronic state is 1-A'.
 Alpha  occ. eigenvalues --  -10.77659 -10.73365 -10.73118 -10.72573 -10.72291
 Alpha  occ. eigenvalues --  -10.71443 -10.71313 -10.71281 -10.70983 -10.70704
 Alpha  occ. eigenvalues --  -10.70003 -10.69941 -10.69654 -10.69599  -1.16459
 Alpha  occ. eigenvalues --   -1.12472  -1.06938  -1.05746  -1.01317  -1.00237
 Alpha  occ. eigenvalues --   -0.95740  -0.91049  -0.86426  -0.85899  -0.83815
 Alpha  occ. eigenvalues --   -0.78386  -0.76049  -0.74406  -0.69571  -0.69259
 Alpha  occ. eigenvalues --   -0.68490  -0.68182  -0.68100  -0.64808  -0.64306
 Alpha  occ. eigenvalues --   -0.63001  -0.61826  -0.60120  -0.59568  -0.59094
 Alpha  occ. eigenvalues --   -0.56906  -0.55249  -0.54775  -0.52435  -0.46746
 Alpha  occ. eigenvalues --   -0.46082  -0.44362
 Alpha virt. eigenvalues --   -0.26089  -0.14683  -0.14085  -0.12770  -0.11179
 Alpha virt. eigenvalues --   -0.10087  -0.09233  -0.07980  -0.07963  -0.07477
 Alpha virt. eigenvalues --   -0.07204  -0.07144  -0.05644  -0.05581  -0.05334

 Mulliken charges:
               1
     1  C    0.080773
     2  C   -0.411156
     3  C   -0.438821
     4  C    0.008423
     5  C    0.020474
     6  C   -0.440641
     7  C   -0.402757
     8  C    0.105542
     9  C   -0.334343
    10  C    0.092319
    11  C   -0.641767
    12  C    0.711605
    13  C   -0.631186
    14  C    0.662125
    15  H    0.237442
    16  H    0.257947
    17  H    0.249202
    18  H    0.223631
    19  H    0.190291
    20  H    0.220322
    21  H    0.248505
    22  H    0.254686
    23  H    0.237080
    24  H    0.250152
    25  H    0.250152
 Sum of Mulliken charges =   1.00000

 Dipole moment (field-independent basis, Debye):
    X=              0.0174    Y=             -0.3593    Z=              0.0000  Tot=              0.3597
 Quadrupole moment (field-independent basis, Debye-Ang):
   XX=            -50.8500   YY=            -36.5227   ZZ=            -84.1402
   XY=             10.3427   XZ=             -0.0000   YZ=              0.0000

 Normal termination of Gaussian 16 at Thu Jul 28 14:32:10 2022.
