 Gaussian 16, Revision C.01,
 Gaussian 16:  ES64L-G16RevC.01  3-Jul-2019

 ---------------------------------------------------------------
 #n M062X/6-311++G(d,p) TD(NStates=1) EmpiricalDispersion=GD3 SP
 ---------------------------------------------------------------

 ------
 SP_-14
 ------
 Symbolic Z-matrix:
 Charge =  1 Multiplicity = 1

                         Standard orientation:
 ---------------------------------------------------------------------
 Center     Atomic      Atomic             Coordinates (Angstroms)
 Number     Number       Type             X           Y           Z
 ---------------------------------------------------------------------
      1          6           0        0.025041    2.858959    0.000000
      2          6           0       -1.140603    3.612639    0.000000
      3          6           0       -2.341155    2.942440    0.000000
      4          6           0       -2.373634    1.497888    0.000000
      5          6           0       -0.087380   -2.865837    0.000000
      6          6           0        1.068149   -3.589174    0.000000
      7          6           0        2.305017   -2.939678    0.000000
      8          6           0        2.358707   -1.546415    0.000000
      9          6           0        1.279244    0.689880    0.000000
     10          6           0       -1.243741   -0.705244    0.000000
     11          6           0       -0.000000    1.413487    0.000000
     12          6           0       -1.217739    0.740591    0.000000
     13          6           0        1.208774   -0.802579    0.000000
     14          6           0       -0.061672   -1.447754    0.000000
     15          1           0        0.991602    3.348362    0.000000
     16          1           0       -1.102719    4.691070    0.000000
     17          1           0       -3.279967    3.479670    0.000000
     18          1           0       -3.339492    1.008642    0.000000
     19          1           0       -2.201679   -1.206357    0.000000
     20          1           0       -1.049125   -3.362849    0.000000
     21          1           0        1.030353   -4.669094    0.000000
     22          1           0        3.220968   -3.512833    0.000000
     23          1           0        3.320977   -1.048910    0.000000
     24          1           0        1.867521    1.058544    0.859585
     25          1           0        1.867521    1.058544   -0.859585
 ---------------------------------------------------------------------

 SCF Done:  E(RM062X) =  -539.753404760     A.U. after   15 cycles

 Excitation energies and oscillator strengths:

 Excited State   1:      Singlet-A'     2.6613 eV  465.88 nm  f=0.0197  <S**2>=0.000
      47 -> 48         0.70342
 This state for optimization and/or second-order correction.
 Total Energy, E(TD-HF/TD-DFT) =  -539.655604371
 Copying the excited state density for this state as the 1-particle RhoCI density.

 The electronic state is 1-A'.
 Alpha  occ. eigenvalues --  -10.77574 -10.73744 -10.72832 -10.72710 -10.72078
 Alpha  occ. eigenvalues --  -10.71951 -10.71792 -10.70990 -10.70870 -10.70198
 Alpha  occ. eigenvalues --  -10.70012 -10.69877 -10.69742 -10.69361  -1.16544
 Alpha  occ. eigenvalues --   -1.12480  -1.06930  -1.05859  -1.01294  -1.00417
 Alpha  occ. eigenvalues --   -0.95579  -0.91036  -0.86442  -0.85881  -0.83799
 Alpha  occ. eigenvalues --   -0.78322  -0.76154  -0.74358  -0.69815  -0.69271
 Alpha  occ. eigenvalues --   -0.68333  -0.68086  -0.68058  -0.65232  -0.64265
 Alpha  occ. eigenvalues --   -0.62719  -0.61648  -0.60444  -0.59266  -0.59226
 Alpha  occ. eigenvalues --   -0.56863  -0.55421  -0.54402  -0.52437  -0.47319
 Alpha  occ. eigenvalues --   -0.46126  -0.43786
 Alpha virt. eigenvalues --   -0.26110  -0.14692  -0.14050  -0.12753  -0.11190
 Alpha virt. eigenvalues --   -0.10093  -0.09259  -0.07961  -0.07917  -0.07485
 Alpha virt. eigenvalues --   -0.07211  -0.07133  -0.05647  -0.05573  -0.05349

 Mulliken charges:
               1
     1  C    0.114692
     2  C   -0.410420
     3  C   -0.446773
     4  C   -0.010961
     5  C    0.037432
     6  C   -0.433155
     7  C   -0.402817
     8  C    0.071962
     9  C   -0.339138
    10  C    0.088031
    11  C   -0.616623
    12  C    0.665626
    13  C   -0.644863
    14  C    0.707184
    15  H    0.235448
    16  H    0.251571
    17  H    0.245873
    18  H    0.219058
    19  H    0.189627
    20  H    0.225177
    21  H    0.251772
    22  H    0.261187
    23  H    0.239311
    24  H    0.250400
    25  H    0.250400
 Sum of Mulliken charges =   1.00000

 Dipole moment (field-independent basis, Debye):
    X=              0.3506    Y=             -1.0208    Z=             -0.0000  Tot=              1.0793
 Quadrupole moment (field-independent basis, Debye-Ang):
   XX=            -51.0115   YY=            -36.2653   ZZ=            -84.1285
   XY=            -10.2760   XZ=              0.0000   YZ=             -0.0000

 Normal termination of Gaussian 16 at Thu Jul 28 13:14:02 2022.
