 Gaussian 16, Revision C.01,
 Gaussian 16:  ES64L-G16RevC.01  3-Jul-2019

 ---------------------------------------------------------------
 #n M062X/6-311++G(d,p) TD(NStates=1) EmpiricalDispersion=GD3 SP
 ---------------------------------------------------------------

 ------
 SP_-10
 ------
 Symbolic Z-matrix:
 Charge =  1 Multiplicity = 1

                         Standard orientation:
 ---------------------------------------------------------------------
 Center     Atomic      Atomic             Coordinates (Angstroms)
 Number     Number       Type             X           Y           Z
 ---------------------------------------------------------------------
      1          6           0        0.040923    2.857982    0.000000
      2          6           0       -1.120443    3.607487    0.000000
      3          6           0       -2.330061    2.947337    0.000000
      4          6           0       -2.374726    1.516304    0.000000
      5          6           0       -0.102203   -2.854547    0.000000
      6          6           0        1.057833   -3.595327    0.000000
      7          6           0        2.297988   -2.959034    0.000000
      8          6           0        2.350717   -1.559955    0.000000
      9          6           0        1.286329    0.676498    0.000000
     10          6           0       -1.248471   -0.696702    0.000000
     11          6           0        0.000000    1.417514    0.000000
     12          6           0       -1.209023    0.760003    0.000000
     13          6           0        1.205453   -0.800507    0.000000
     14          6           0       -0.082717   -1.443932    0.000000
     15          1           0        1.018277    3.325268    0.000000
     16          1           0       -1.065342    4.685027    0.000000
     17          1           0       -3.269368    3.483181    0.000000
     18          1           0       -3.349707    1.045982    0.000000
     19          1           0       -2.216867   -1.177792    0.000000
     20          1           0       -1.074174   -3.333212    0.000000
     21          1           0        1.021447   -4.675893    0.000000
     22          1           0        3.204884   -3.546869    0.000000
     23          1           0        3.324885   -1.083990    0.000000
     24          1           0        1.888185    1.019786    0.859585
     25          1           0        1.888185    1.019786   -0.859585
 ---------------------------------------------------------------------

 SCF Done:  E(RM062X) =  -539.754497509     A.U. after   15 cycles

 Excitation energies and oscillator strengths:

 Excited State   1:      Singlet-A'     2.7100 eV  457.50 nm  f=0.0202  <S**2>=0.000
      47 -> 48         0.70350
 This state for optimization and/or second-order correction.
 Total Energy, E(TD-HF/TD-DFT) =  -539.654905660
 Copying the excited state density for this state as the 1-particle RhoCI density.

 The electronic state is 1-A'.
 Alpha  occ. eigenvalues --  -10.77537 -10.73870 -10.72836 -10.72536 -10.72204
 Alpha  occ. eigenvalues --  -10.72041 -10.71916 -10.70971 -10.70677 -10.70333
 Alpha  occ. eigenvalues --  -10.70069 -10.69891 -10.69606 -10.69197  -1.16520
 Alpha  occ. eigenvalues --   -1.12458  -1.06983  -1.05880  -1.01242  -1.00268
 Alpha  occ. eigenvalues --   -0.95689  -0.91093  -0.86398  -0.85875  -0.83774
 Alpha  occ. eigenvalues --   -0.78363  -0.76113  -0.74385  -0.70001  -0.69197
 Alpha  occ. eigenvalues --   -0.68321  -0.68100  -0.67957  -0.65200  -0.64139
 Alpha  occ. eigenvalues --   -0.62753  -0.61736  -0.60349  -0.59363  -0.59358
 Alpha  occ. eigenvalues --   -0.56761  -0.55433  -0.54326  -0.52471  -0.47139
 Alpha  occ. eigenvalues --   -0.46112  -0.43963
 Alpha virt. eigenvalues --   -0.26124  -0.14651  -0.14059  -0.12745  -0.11193
 Alpha virt. eigenvalues --   -0.10095  -0.09265  -0.07965  -0.07914  -0.07481
 Alpha virt. eigenvalues --   -0.07212  -0.07128  -0.05644  -0.05575  -0.05354

 Mulliken charges:
               1
     1  C    0.097079
     2  C   -0.423950
     3  C   -0.451233
     4  C   -0.060993
     5  C    0.071735
     6  C   -0.428997
     7  C   -0.385005
     8  C    0.086384
     9  C   -0.351520
    10  C    0.081495
    11  C   -0.616137
    12  C    0.737848
    13  C   -0.644346
    14  C    0.666697
    15  H    0.234670
    16  H    0.251598
    17  H    0.244110
    18  H    0.221230
    19  H    0.189931
    20  H    0.223555
    21  H    0.253852
    22  H    0.261080
    23  H    0.241220
    24  H    0.249848
    25  H    0.249848
 Sum of Mulliken charges =   1.00000

 Dipole moment (field-independent basis, Debye):
    X=              0.4088    Y=             -1.1514    Z=              0.0000  Tot=              1.2218
 Quadrupole moment (field-independent basis, Debye-Ang):
   XX=            -50.7747   YY=            -36.4807   ZZ=            -84.1262
   XY=            -10.4503   XZ=              0.0000   YZ=             -0.0000

 Normal termination of Gaussian 16 at Thu Jul 28 13:32:50 2022.
