 Gaussian 16, Revision C.01,
 Gaussian 16:  ES64L-G16RevC.01  3-Jul-2019

 ---------------------------------------------------------------
 #n M062X/6-311++G(d,p) TD(NStates=1) EmpiricalDispersion=GD3 SP
 ---------------------------------------------------------------

 -----
 SP_-6
 -----
 Symbolic Z-matrix:
 Charge =  1 Multiplicity = 1

                         Standard orientation:
 ---------------------------------------------------------------------
 Center     Atomic      Atomic             Coordinates (Angstroms)
 Number     Number       Type             X           Y           Z
 ---------------------------------------------------------------------
      1          6           0        0.022329    2.847929    0.000000
      2          6           0       -1.150478    3.593662    0.000000
      3          6           0       -2.358038    2.923181    0.000000
      4          6           0       -2.391431    1.502019    0.000000
      5          6           0       -0.080721   -2.848758    0.000000
      6          6           0        1.093555   -3.586059    0.000000
      7          6           0        2.326200   -2.942196    0.000000
      8          6           0        2.369284   -1.550380    0.000000
      9          6           0        1.280061    0.688293    0.000000
     10          6           0       -1.252636   -0.688327    0.000000
     11          6           0        0.000000    1.424176    0.000000
     12          6           0       -1.224172    0.743088    0.000000
     13          6           0        1.199931   -0.796516    0.000000
     14          6           0       -0.060092   -1.441004    0.000000
     15          1           0        0.983266    3.348012    0.000000
     16          1           0       -1.115144    4.672580    0.000000
     17          1           0       -3.291599    3.468494    0.000000
     18          1           0       -3.351665    1.002095    0.000000
     19          1           0       -2.207550   -1.195152    0.000000
     20          1           0       -1.036818   -3.356435    0.000000
     21          1           0        1.046125   -4.665714    0.000000
     22          1           0        3.243171   -3.512961    0.000000
     23          1           0        3.325904   -1.042208    0.000000
     24          1           0        1.880781    1.033322    0.859585
     25          1           0        1.880781    1.033322   -0.859585
 ---------------------------------------------------------------------

 SCF Done:  E(RM062X) =  -539.758965482     A.U. after   15 cycles

 Excitation energies and oscillator strengths:

 Excited State   1:      Singlet-A'     2.7853 eV  445.15 nm  f=0.0257  <S**2>=0.000
      47 -> 48         0.70388
 This state for optimization and/or second-order correction.
 Total Energy, E(TD-HF/TD-DFT) =  -539.656609373
 Copying the excited state density for this state as the 1-particle RhoCI density.

 The electronic state is 1-A'.
 Alpha  occ. eigenvalues --  -10.77649 -10.73461 -10.73015 -10.72617 -10.72237
 Alpha  occ. eigenvalues --  -10.71561 -10.71457 -10.71163 -10.70981 -10.70567
 Alpha  occ. eigenvalues --  -10.70070 -10.69874 -10.69739 -10.69516  -1.16461
 Alpha  occ. eigenvalues --   -1.12468  -1.06942  -1.05754  -1.01309  -1.00231
 Alpha  occ. eigenvalues --   -0.95741  -0.91053  -0.86423  -0.85898  -0.83813
 Alpha  occ. eigenvalues --   -0.78385  -0.76052  -0.74406  -0.69619  -0.69244
 Alpha  occ. eigenvalues --   -0.68470  -0.68165  -0.68099  -0.64851  -0.64279
 Alpha  occ. eigenvalues --   -0.62980  -0.61826  -0.60136  -0.59551  -0.59120
 Alpha  occ. eigenvalues --   -0.56890  -0.55282  -0.54728  -0.52438  -0.46776
 Alpha  occ. eigenvalues --   -0.46082  -0.44335
 Alpha virt. eigenvalues --   -0.26092  -0.14673  -0.14089  -0.12770  -0.11181
 Alpha virt. eigenvalues --   -0.10087  -0.09236  -0.07978  -0.07960  -0.07477
 Alpha virt. eigenvalues --   -0.07204  -0.07143  -0.05644  -0.05580  -0.05336

 Mulliken charges:
               1
     1  C    0.102151
     2  C   -0.408521
     3  C   -0.442894
     4  C    0.003970
     5  C    0.025090
     6  C   -0.437139
     7  C   -0.405177
     8  C    0.083570
     9  C   -0.334825
    10  C    0.092346
    11  C   -0.630405
    12  C    0.677454
    13  C   -0.641370
    14  C    0.696234
    15  H    0.236459
    16  H    0.254247
    17  H    0.247608
    18  H    0.220697
    19  H    0.190254
    20  H    0.223366
    21  H    0.250152
    22  H    0.258387
    23  H    0.238152
    24  H    0.250098
    25  H    0.250098
 Sum of Mulliken charges =   1.00000

 Dipole moment (field-independent basis, Debye):
    X=              0.0537    Y=             -0.4916    Z=              0.0000  Tot=              0.4945
 Quadrupole moment (field-independent basis, Debye-Ang):
   XX=            -50.8041   YY=            -36.5559   ZZ=            -84.1393
   XY=            -10.3770   XZ=              0.0000   YZ=              0.0000

 Normal termination of Gaussian 16 at Thu Jul 28 13:44:57 2022.
