 Gaussian 16, Revision C.01,
 Gaussian 16:  ES64L-G16RevC.01  3-Jul-2019

 ---------------------------------------------------------------
 #n M062X/6-311++G(d,p) TD(NStates=1) EmpiricalDispersion=GD3 SP
 ---------------------------------------------------------------

 -----
 SP_10
 -----
 Symbolic Z-matrix:
 Charge =  1 Multiplicity = 1

                         Standard orientation:
 ---------------------------------------------------------------------
 Center     Atomic      Atomic             Coordinates (Angstroms)
 Number     Number       Type             X           Y           Z
 ---------------------------------------------------------------------
      1          6           0       -2.359579   -1.552254    0.000000
      2          6           0       -2.309763   -2.946977    0.000000
      3          6           0       -1.073205   -3.590207    0.000000
      4          6           0        0.090082   -2.856395    0.000000
      5          6           0        2.379947    1.505403    0.000000
      6          6           0        2.343118    2.937661    0.000000
      7          6           0        1.137203    3.604612    0.000000
      8          6           0       -0.029404    2.854967    0.000000
      9          6           0       -1.281885    0.684903    0.000000
     10          6           0        1.248264   -0.696756    0.000000
     11          6           0       -1.204721   -0.799850    0.000000
     12          6           0        0.068150   -1.444255    0.000000
     13          6           0        0.000000    1.418384    0.000000
     14          6           0        1.217001    0.747904    0.000000
     15          1           0       -3.323969   -1.058346    0.000000
     16          1           0       -3.223057   -3.524235    0.000000
     17          1           0       -1.032675   -4.670234    0.000000
     18          1           0        1.053385   -3.350871    0.000000
     19          1           0        2.208708   -1.193120    0.000000
     20          1           0        3.347005    1.018883    0.000000
     21          1           0        3.280330    3.477108    0.000000
     22          1           0        1.094434    4.682931    0.000000
     23          1           0       -0.997726    3.340583    0.000000
     24          1           0       -1.878839    1.037235    0.859585
     25          1           0       -1.878839    1.037235   -0.859585
 ---------------------------------------------------------------------

 SCF Done:  E(RM062X) =  -539.756325433     A.U. after   15 cycles

 Excitation energies and oscillator strengths:

 Excited State   1:      Singlet-A'     2.7235 eV  455.24 nm  f=0.0217  <S**2>=0.000
      47 -> 48         0.70358
 This state for optimization and/or second-order correction.
 Total Energy, E(TD-HF/TD-DFT) =  -539.656238319
 Copying the excited state density for this state as the 1-particle RhoCI density.

 The electronic state is 1-A'.
 Alpha  occ. eigenvalues --  -10.77596 -10.73695 -10.72767 -10.72755 -10.72038
 Alpha  occ. eigenvalues --  -10.71911 -10.71800 -10.70980 -10.70903 -10.70201
 Alpha  occ. eigenvalues --  -10.70152 -10.69896 -10.69741 -10.69357  -1.16501
 Alpha  occ. eigenvalues --   -1.12467  -1.06949  -1.05818  -1.01285  -1.00296
 Alpha  occ. eigenvalues --   -0.95677  -0.91057  -0.86422  -0.85887  -0.83800
 Alpha  occ. eigenvalues --   -0.78360  -0.76100  -0.74386  -0.69798  -0.69229
 Alpha  occ. eigenvalues --   -0.68380  -0.68095  -0.68076  -0.65081  -0.64230
 Alpha  occ. eigenvalues --   -0.62825  -0.61751  -0.60305  -0.59394  -0.59221
 Alpha  occ. eigenvalues --   -0.56844  -0.55386  -0.54504  -0.52446  -0.47056
 Alpha  occ. eigenvalues --   -0.46106  -0.44048
 Alpha virt. eigenvalues --   -0.26106  -0.14669  -0.14072  -0.12760  -0.11187
 Alpha virt. eigenvalues --   -0.10091  -0.09251  -0.07969  -0.07935  -0.07481
 Alpha virt. eigenvalues --   -0.07208  -0.07136  -0.05645  -0.05576  -0.05345

 Mulliken charges:
               1
     1  C    0.080474
     2  C   -0.397796
     3  C   -0.433352
     4  C    0.046322
     5  C   -0.021372
     6  C   -0.447116
     7  C   -0.414805
     8  C    0.104811
     9  C   -0.339665
    10  C    0.089028
    11  C   -0.643101
    12  C    0.688849
    13  C   -0.622487
    14  C    0.690250
    15  H    0.239525
    16  H    0.260221
    17  H    0.251935
    18  H    0.224037
    19  H    0.189960
    20  H    0.220297
    21  H    0.245864
    22  H    0.252462
    23  H    0.235439
    24  H    0.250111
    25  H    0.250111
 Sum of Mulliken charges =   1.00000

 Dipole moment (field-independent basis, Debye):
    X=             -0.2715    Y=             -0.8892    Z=             -0.0000  Tot=              0.9297
 Quadrupole moment (field-independent basis, Debye-Ang):
   XX=            -50.8630   YY=            -36.4411   ZZ=            -84.1327
   XY=             10.3629   XZ=              0.0000   YZ=             -0.0000

 Normal termination of Gaussian 16 at Thu Jul 28 14:45:24 2022.
