 Gaussian 16, Revision C.01,
 Gaussian 16:  ES64L-G16RevC.01  3-Jul-2019

 ---------------------------------------------------------------
 #n M062X/6-311++G(d,p) TD(NStates=1) EmpiricalDispersion=GD3 SP
 ---------------------------------------------------------------

 -----
 SP_-8
 -----
 Symbolic Z-matrix:
 Charge =  1 Multiplicity = 1

                         Standard orientation:
 ---------------------------------------------------------------------
 Center     Atomic      Atomic             Coordinates (Angstroms)
 Number     Number       Type             X           Y           Z
 ---------------------------------------------------------------------
      1          6           0        0.040191    2.855228    0.000000
      2          6           0       -1.122981    3.602746    0.000000
      3          6           0       -2.334345    2.942520    0.000000
      4          6           0       -2.379188    1.517334    0.000000
      5          6           0       -0.100481   -2.850289    0.000000
      6          6           0        1.064232   -3.594573    0.000000
      7          6           0        2.303318   -2.959667    0.000000
      8          6           0        2.353372   -1.560937    0.000000
      9          6           0        1.286526    0.676117    0.000000
     10          6           0       -1.250655   -0.692471    0.000000
     11          6           0        0.000000    1.420179    0.000000
     12          6           0       -1.210645    0.760628    0.000000
     13          6           0        1.203255   -0.798959    0.000000
     14          6           0       -0.082294   -1.442257    0.000000
     15          1           0        1.016165    3.325212    0.000000
     16          1           0       -1.068528    4.680421    0.000000
     17          1           0       -3.272325    3.480362    0.000000
     18          1           0       -3.352787    1.044316    0.000000
     19          1           0       -2.218311   -1.175012    0.000000
     20          1           0       -1.071064   -3.331647    0.000000
     21          1           0        1.025452   -4.675049    0.000000
     22          1           0        3.210486   -3.546899    0.000000
     23          1           0        3.326153   -1.082276    0.000000
     24          1           0        1.891461    1.013489    0.859585
     25          1           0        1.891461    1.013489   -0.859585
 ---------------------------------------------------------------------

 SCF Done:  E(RM062X) =  -539.755904504     A.U. after   15 cycles

 Excitation energies and oscillator strengths:

 Excited State   1:      Singlet-A'     2.7419 eV  452.19 nm  f=0.0219  <S**2>=0.000
      47 -> 48         0.70358
 This state for optimization and/or second-order correction.
 Total Energy, E(TD-HF/TD-DFT) =  -539.655142398
 Copying the excited state density for this state as the 1-particle RhoCI density.

 The electronic state is 1-A'.
 Alpha  occ. eigenvalues --  -10.77566 -10.73805 -10.72788 -10.72615 -10.72047
 Alpha  occ. eigenvalues --  -10.71991 -10.71983 -10.70972 -10.70747 -10.70302
 Alpha  occ. eigenvalues --  -10.70034 -10.70025 -10.69639 -10.69234  -1.16498
 Alpha  occ. eigenvalues --   -1.12459  -1.06980  -1.05847  -1.01254  -1.00231
 Alpha  occ. eigenvalues --   -0.95725  -0.91091  -0.86398  -0.85880  -0.83781
 Alpha  occ. eigenvalues --   -0.78377  -0.76087  -0.74395  -0.69940  -0.69181
 Alpha  occ. eigenvalues --   -0.68364  -0.68103  -0.67999  -0.65102  -0.64146
 Alpha  occ. eigenvalues --   -0.62822  -0.61780  -0.60272  -0.59435  -0.59313
 Alpha  occ. eigenvalues --   -0.56781  -0.55398  -0.54423  -0.52467  -0.46996
 Alpha  occ. eigenvalues --   -0.46100  -0.44107
 Alpha virt. eigenvalues --   -0.26117  -0.14655  -0.14067  -0.12750  -0.11190
 Alpha virt. eigenvalues --   -0.10094  -0.09256  -0.07970  -0.07927  -0.07479
 Alpha virt. eigenvalues --   -0.07210  -0.07132  -0.05644  -0.05577  -0.05350

 Mulliken charges:
               1
     1  C    0.094427
     2  C   -0.423963
     3  C   -0.449966
     4  C   -0.057019
     5  C    0.069575
     6  C   -0.429927
     7  C   -0.385740
     8  C    0.089492
     9  C   -0.349088
    10  C    0.083304
    11  C   -0.621045
    12  C    0.738905
    13  C   -0.643312
    14  C    0.663653
    15  H    0.234827
    16  H    0.252262
    17  H    0.244515
    18  H    0.221558
    19  H    0.190095
    20  H    0.223068
    21  H    0.253421
    22  H    0.260385
    23  H    0.240883
    24  H    0.249844
    25  H    0.249844
 Sum of Mulliken charges =   1.00000

 Dipole moment (field-independent basis, Debye):
    X=              0.3357    Y=             -1.0201    Z=              0.0000  Tot=              1.0739
 Quadrupole moment (field-independent basis, Debye-Ang):
   XX=            -50.7240   YY=            -36.5631   ZZ=            -84.1298
   XY=            -10.4705   XZ=             -0.0000   YZ=             -0.0000

 Normal termination of Gaussian 16 at Thu Jul 28 13:40:33 2022.
