 Gaussian 16, Revision C.01,
 Gaussian 16:  ES64L-G16RevC.01  3-Jul-2019

 ---------------------------------------------------------------
 #n M062X/6-311++G(d,p) TD(NStates=1) EmpiricalDispersion=GD3 SP
 ---------------------------------------------------------------

 -----
 SP_-4
 -----
 Symbolic Z-matrix:
 Charge =  1 Multiplicity = 1

                         Standard orientation:
 ---------------------------------------------------------------------
 Center     Atomic      Atomic             Coordinates (Angstroms)
 Number     Number       Type             X           Y           Z
 ---------------------------------------------------------------------
      1          6           0        0.004696    2.840522    0.000000
      2          6           0       -1.177753    3.584418    0.000000
      3          6           0       -2.381450    2.903752    0.000000
      4          6           0       -2.403516    1.486706    0.000000
      5          6           0       -0.061109   -2.847089    0.000000
      6          6           0        1.122660   -3.577354    0.000000
      7          6           0        2.348827   -2.924648    0.000000
      8          6           0        2.385104   -1.539772    0.000000
      9          6           0        1.273515    0.700356    0.000000
     10          6           0       -1.254775   -0.684198    0.000000
     11          6           0        0.000000    1.428250    0.000000
     12          6           0       -1.237475    0.725441    0.000000
     13          6           0        1.196604   -0.794215    0.000000
     14          6           0       -0.037974   -1.439500    0.000000
     15          1           0        0.950225    3.370466    0.000000
     16          1           0       -1.161507    4.664354    0.000000
     17          1           0       -3.310733    3.456670    0.000000
     18          1           0       -3.350061    0.960090    0.000000
     19          1           0       -2.196663   -1.215105    0.000000
     20          1           0       -1.002406   -3.380855    0.000000
     21          1           0        1.066522   -4.656374    0.000000
     22          1           0        3.275382   -3.478870    0.000000
     23          1           0        3.325202   -1.002344    0.000000
     24          1           0        1.869954    1.052973    0.859585
     25          1           0        1.869954    1.052973   -0.859585
 ---------------------------------------------------------------------

 SCF Done:  E(RM062X) =  -539.758500565     A.U. after   15 cycles

 Excitation energies and oscillator strengths:

 Excited State   1:      Singlet-A'     2.8113 eV  441.03 nm  f=0.0289  <S**2>=0.000
      47 -> 48         0.70363
 This state for optimization and/or second-order correction.
 Total Energy, E(TD-HF/TD-DFT) =  -539.655188614
 Copying the excited state density for this state as the 1-particle RhoCI density.

 The electronic state is 1-A'.
 Alpha  occ. eigenvalues --  -10.77664 -10.73393 -10.73089 -10.72455 -10.72412
 Alpha  occ. eigenvalues --  -10.71593 -10.71147 -10.71128 -10.70984 -10.70878
 Alpha  occ. eigenvalues --  -10.70109 -10.69835 -10.69808 -10.69449  -1.16452
 Alpha  occ. eigenvalues --   -1.12476  -1.06947  -1.05751  -1.01313  -1.00215
 Alpha  occ. eigenvalues --   -0.95767  -0.91063  -0.86418  -0.85894  -0.83808
 Alpha  occ. eigenvalues --   -0.78399  -0.76033  -0.74410  -0.69638  -0.69185
 Alpha  occ. eigenvalues --   -0.68517  -0.68172  -0.68107  -0.64754  -0.64279
 Alpha  occ. eigenvalues --   -0.63054  -0.61838  -0.60040  -0.59655  -0.59103
 Alpha  occ. eigenvalues --   -0.56895  -0.55192  -0.54816  -0.52443  -0.46638
 Alpha  occ. eigenvalues --   -0.46074  -0.44471
 Alpha virt. eigenvalues --   -0.26090  -0.14698  -0.14071  -0.12764  -0.11179
 Alpha virt. eigenvalues --   -0.10088  -0.09230  -0.07985  -0.07965  -0.07475
 Alpha virt. eigenvalues --   -0.07203  -0.07144  -0.05644  -0.05582  -0.05335

 Mulliken charges:
               1
     1  C    0.109242
     2  C   -0.390032
     3  C   -0.434983
     4  C    0.053404
     5  C   -0.033062
     6  C   -0.442672
     7  C   -0.422840
     8  C    0.078035
     9  C   -0.339359
    10  C    0.088655
    11  C   -0.634996
    12  C    0.641431
    13  C   -0.640336
    14  C    0.747883
    15  H    0.238819
    16  H    0.256240
    17  H    0.250748
    18  H    0.220100
    19  H    0.190455
    20  H    0.223770
    21  H    0.246912
    22  H    0.256361
    23  H    0.235973
    24  H    0.250126
    25  H    0.250126
 Sum of Mulliken charges =   1.00000

 Dipole moment (field-independent basis, Debye):
    X=             -0.2349    Y=              0.0387    Z=             -0.0000  Tot=              0.2381
 Quadrupole moment (field-independent basis, Debye-Ang):
   XX=            -50.8894   YY=            -36.5019   ZZ=            -84.1401
   XY=            -10.3180   XZ=             -0.0000   YZ=             -0.0000

 Normal termination of Gaussian 16 at Thu Jul 28 13:49:23 2022.
