 Gaussian 16, Revision C.01,
 Gaussian 16:  ES64L-G16RevC.01  3-Jul-2019

 ---------------------------------------------------------------
 #n M062X/6-311++G(d,p) TD(NStates=1) EmpiricalDispersion=GD3 SP
 ---------------------------------------------------------------

 ------
 SP_-14
 ------
 Symbolic Z-matrix:
 Charge =  1 Multiplicity = 1

                         Standard orientation:
 ---------------------------------------------------------------------
 Center     Atomic      Atomic             Coordinates (Angstroms)
 Number     Number       Type             X           Y           Z
 ---------------------------------------------------------------------
      1          6           0        0.007757    2.854324    0.000000
      2          6           0       -1.165835    3.608143    0.000000
      3          6           0       -2.360733    2.927802    0.000000
      4          6           0       -2.381339    1.481521    0.000000
      5          6           0       -0.069072   -2.868496    0.000000
      6          6           0        1.091196   -3.581393    0.000000
      7          6           0        2.322547   -2.921512    0.000000
      8          6           0        2.371940   -1.534749    0.000000
      9          6           0        1.272441    0.702433    0.000000
     10          6           0       -1.243417   -0.705336    0.000000
     11          6           0        0.000000    1.414851    0.000000
     12          6           0       -1.229501    0.722314    0.000000
     13          6           0        1.207744   -0.801598    0.000000
     14          6           0       -0.039780   -1.447998    0.000000
     15          1           0        0.960454    3.371080    0.000000
     16          1           0       -1.146474    4.687537    0.000000
     17          1           0       -3.296498    3.470475    0.000000
     18          1           0       -3.335041    0.968097    0.000000
     19          1           0       -2.189159   -1.229232    0.000000
     20          1           0       -1.017552   -3.389089    0.000000
     21          1           0        1.047185   -4.660606    0.000000
     22          1           0        3.247926   -3.478685    0.000000
     23          1           0        3.319235   -1.010489    0.000000
     24          1           0        1.853115    1.084539    0.859585
     25          1           0        1.853115    1.084539   -0.859585
 ---------------------------------------------------------------------

 SCF Done:  E(RM062X) =  -539.753014262     A.U. after   16 cycles

 Excitation energies and oscillator strengths:

 Excited State   1:      Singlet-A'     2.6797 eV  462.68 nm  f=0.0225  <S**2>=0.000
      47 -> 48         0.70332
 This state for optimization and/or second-order correction.
 Total Energy, E(TD-HF/TD-DFT) =  -539.654536313
 Copying the excited state density for this state as the 1-particle RhoCI density.

 The electronic state is 1-A'.
 Alpha  occ. eigenvalues --  -10.77642 -10.73470 -10.73033 -10.72716 -10.72126
 Alpha  occ. eigenvalues --  -10.71636 -10.71440 -10.71223 -10.71008 -10.70405
 Alpha  occ. eigenvalues --  -10.69998 -10.69944 -10.69618 -10.69606  -1.16527
 Alpha  occ. eigenvalues --   -1.12506  -1.06902  -1.05813  -1.01346  -1.00459
 Alpha  occ. eigenvalues --   -0.95573  -0.91017  -0.86463  -0.85883  -0.83810
 Alpha  occ. eigenvalues --   -0.78329  -0.76131  -0.74352  -0.69584  -0.69312
 Alpha  occ. eigenvalues --   -0.68456  -0.68151  -0.68092  -0.65040  -0.64385
 Alpha  occ. eigenvalues --   -0.62804  -0.61652  -0.60390  -0.59326  -0.59072
 Alpha  occ. eigenvalues --   -0.56961  -0.55300  -0.54602  -0.52422  -0.47174
 Alpha  occ. eigenvalues --   -0.46131  -0.43916
 Alpha virt. eigenvalues --   -0.26093  -0.14753  -0.14031  -0.12752  -0.11184
 Alpha virt. eigenvalues --   -0.10090  -0.09242  -0.07972  -0.07937  -0.07482
 Alpha virt. eigenvalues --   -0.07207  -0.07139  -0.05648  -0.05578  -0.05341

 Mulliken charges:
               1
     1  C    0.126248
     2  C   -0.393609
     3  C   -0.438771
     4  C    0.037054
     5  C   -0.013988
     6  C   -0.436854
     7  C   -0.420944
     8  C    0.064495
     9  C   -0.337358
    10  C    0.086822
    11  C   -0.622381
    12  C    0.620570
    13  C   -0.647321
    14  C    0.756863
    15  H    0.237144
    16  H    0.252870
    17  H    0.248457
    18  H    0.217686
    19  H    0.189893
    20  H    0.225796
    21  H    0.248818
    22  H    0.259869
    23  H    0.237098
    24  H    0.250771
    25  H    0.250771
 Sum of Mulliken charges =   1.00000

 Dipole moment (field-independent basis, Debye):
    X=              0.1382    Y=             -0.6270    Z=             -0.0000  Tot=              0.6421
 Quadrupole moment (field-independent basis, Debye-Ang):
   XX=            -51.1593   YY=            -36.2039   ZZ=            -84.1338
   XY=            -10.1538   XZ=              0.0000   YZ=              0.0000

 Normal termination of Gaussian 16 at Thu Jul 28 13:10:43 2022.
