 Gaussian 16, Revision C.01,
 Gaussian 16:  ES64L-G16RevC.01  3-Jul-2019

 ---------------------------------------------------------------
 #n M062X/6-311++G(d,p) TD(NStates=1) EmpiricalDispersion=GD3 SP
 ---------------------------------------------------------------

 ----
 SP_0
 ----
 Symbolic Z-matrix:
 Charge =  1 Multiplicity = 1

                         Standard orientation:
 ---------------------------------------------------------------------
 Center     Atomic      Atomic             Coordinates (Angstroms)
 Number     Number       Type             X           Y           Z
 ---------------------------------------------------------------------
      1          6           0        2.495185   -1.349172    0.000000
      2          6           0        3.706630   -0.656245    0.000000
      3          6           0        3.681345    0.729477    0.000000
      4          6           0        2.456032    1.417053    0.000000
      5          6           0       -2.470243    1.397988    0.000000
      6          6           0       -3.686311    0.698175    0.000000
      7          6           0       -3.696319   -0.687701    0.000000
      8          6           0       -2.490074   -1.371694    0.000000
      9          6           0        0.009360   -1.453342    0.000000
     10          6           0        0.000000    1.429203    0.000000
     11          6           0        1.262847   -0.677569    0.000000
     12          6           0        1.230471    0.743373    0.000000
     13          6           0       -1.261292   -0.676567    0.000000
     14          6           0       -1.244385    0.718189    0.000000
     15          1           0        2.510922   -2.432729    0.000000
     16          1           0        4.648190   -1.185447    0.000000
     17          1           0        4.609136    1.284444    0.000000
     18          1           0        2.442508    2.499925    0.000000
     19          1           0       -0.017110    2.510215    0.000000
     20          1           0       -2.492552    2.480022    0.000000
     21          1           0       -4.609370    1.260277    0.000000
     22          1           0       -4.625176   -1.237854    0.000000
     23          1           0       -2.465173   -2.454412    0.000000
     24          1           0        0.019577   -2.145722    0.859585
     25          1           0        0.019577   -2.145722   -0.859585
 ---------------------------------------------------------------------

 SCF Done:  E(RM062X) =  -539.759579801     A.U. after   15 cycles

 Excitation energies and oscillator strengths:

 Excited State   1:      Singlet-A'     2.8214 eV  439.45 nm  f=0.0287  <S**2>=0.000
      47 -> 48         0.70405
 This state for optimization and/or second-order correction.
 Total Energy, E(TD-HF/TD-DFT) =  -539.655897063
 Copying the excited state density for this state as the 1-particle RhoCI density.

 The electronic state is 1-A'.
 Alpha  occ. eigenvalues --  -10.77657 -10.73438 -10.73036 -10.72530 -10.72332
 Alpha  occ. eigenvalues --  -10.71609 -10.71287 -10.71133 -10.70979 -10.70725
 Alpha  occ. eigenvalues --  -10.70107 -10.69837 -10.69800 -10.69461  -1.16446
 Alpha  occ. eigenvalues --   -1.12466  -1.06952  -1.05745  -1.01306  -1.00182
 Alpha  occ. eigenvalues --   -0.95785  -0.91065  -0.86413  -0.85898  -0.83810
 Alpha  occ. eigenvalues --   -0.78402  -0.76029  -0.74417  -0.69643  -0.69197
 Alpha  occ. eigenvalues --   -0.68499  -0.68167  -0.68105  -0.64772  -0.64248
 Alpha  occ. eigenvalues --   -0.63054  -0.61862  -0.60012  -0.59675  -0.59121
 Alpha  occ. eigenvalues --   -0.56879  -0.55230  -0.54792  -0.52444  -0.46630
 Alpha  occ. eigenvalues --   -0.46059  -0.44493
 Alpha virt. eigenvalues --   -0.26091  -0.14674  -0.14088  -0.12769  -0.11180
 Alpha virt. eigenvalues --   -0.10087  -0.09232  -0.07983  -0.07966  -0.07475
 Alpha virt. eigenvalues --   -0.07204  -0.07144  -0.05643  -0.05582  -0.05334

 Mulliken charges:
               1
     1  C    0.099562
     2  C   -0.394731
     3  C   -0.435799
     4  C    0.045600
     5  C   -0.021072
     6  C   -0.443706
     7  C   -0.418093
     8  C    0.087093
     9  C   -0.337362
    10  C    0.090918
    11  C   -0.636966
    12  C    0.659333
    13  C   -0.636025
    14  C    0.721557
    15  H    0.238719
    16  H    0.257180
    17  H    0.250730
    18  H    0.221390
    19  H    0.190427
    20  H    0.222660
    21  H    0.247043
    22  H    0.255421
    23  H    0.236066
    24  H    0.250027
    25  H    0.250027
 Sum of Mulliken charges =   1.00000

 Dipole moment (field-independent basis, Debye):
    X=              0.3007    Y=              0.1887    Z=             -0.0000  Tot=              0.3550
 Quadrupole moment (field-independent basis, Debye-Ang):
   XX=            -31.1093   YY=            -56.2669   ZZ=            -84.1406
   XY=             -0.1058   XZ=             -0.0000   YZ=             -0.0000

 Normal termination of Gaussian 16 at Thu Jul 28 14:05:58 2022.
