 Gaussian 16, Revision C.01,
 Gaussian 16:  ES64L-G16RevC.01  3-Jul-2019

 ---------------------------------------------------------------
 #n M062X/6-311++G(d,p) TD(NStates=1) EmpiricalDispersion=GD3 SP
 ---------------------------------------------------------------

 -----
 SP_-4
 -----
 Symbolic Z-matrix:
 Charge =  1 Multiplicity = 1

                         Standard orientation:
 ---------------------------------------------------------------------
 Center     Atomic      Atomic             Coordinates (Angstroms)
 Number     Number       Type             X           Y           Z
 ---------------------------------------------------------------------
      1          6           0        0.027365    2.846701    0.000000
      2          6           0       -1.144611    3.590388    0.000000
      3          6           0       -2.355786    2.923223    0.000000
      4          6           0       -2.393302    1.508502    0.000000
      5          6           0       -0.085088   -2.843593    0.000000
      6          6           0        1.092264   -3.587878    0.000000
      7          6           0        2.325659   -2.948871    0.000000
      8          6           0        2.367515   -1.555232    0.000000
      9          6           0        1.282504    0.683716    0.000000
     10          6           0       -1.254931   -0.684067    0.000000
     11          6           0        0.000000    1.426397    0.000000
     12          6           0       -1.221837    0.749783    0.000000
     13          6           0        1.198087   -0.795300    0.000000
     14          6           0       -0.066964   -1.439206    0.000000
     15          1           0        0.991486    3.340336    0.000000
     16          1           0       -1.103754    4.669083    0.000000
     17          1           0       -3.289054    3.468728    0.000000
     18          1           0       -3.356157    1.013966    0.000000
     19          1           0       -2.213123   -1.184724    0.000000
     20          1           0       -1.044171   -3.346076    0.000000
     21          1           0        1.044510   -4.667699    0.000000
     22          1           0        3.239729   -3.524341    0.000000
     23          1           0        3.327686   -1.053314    0.000000
     24          1           0        1.888799    1.018328    0.859585
     25          1           0        1.888799    1.018328   -0.859585
 ---------------------------------------------------------------------

 SCF Done:  E(RM062X) =  -539.759391080     A.U. after   15 cycles

 Excitation energies and oscillator strengths:

 Excited State   1:      Singlet-A'     2.8020 eV  442.48 nm  f=0.0267  <S**2>=0.000
      47 -> 48         0.70402
 This state for optimization and/or second-order correction.
 Total Energy, E(TD-HF/TD-DFT) =  -539.656418115
 Copying the excited state density for this state as the 1-particle RhoCI density.

 The electronic state is 1-A'.
 Alpha  occ. eigenvalues --  -10.77648 -10.73484 -10.72986 -10.72603 -10.72251
 Alpha  occ. eigenvalues --  -10.71619 -10.71448 -10.71115 -10.70978 -10.70573
 Alpha  occ. eigenvalues --  -10.70105 -10.69839 -10.69789 -10.69471  -1.16454
 Alpha  occ. eigenvalues --   -1.12465  -1.06949  -1.05752  -1.01303  -1.00200
 Alpha  occ. eigenvalues --   -0.95766  -0.91060  -0.86416  -0.85898  -0.83810
 Alpha  occ. eigenvalues --   -0.78394  -0.76042  -0.74412  -0.69650  -0.69218
 Alpha  occ. eigenvalues --   -0.68474  -0.68158  -0.68101  -0.64831  -0.64251
 Alpha  occ. eigenvalues --   -0.63006  -0.61847  -0.60088  -0.59598  -0.59134
 Alpha  occ. eigenvalues --   -0.56876  -0.55275  -0.54736  -0.52442  -0.46716
 Alpha  occ. eigenvalues --   -0.46071  -0.44401
 Alpha virt. eigenvalues --   -0.26093  -0.14667  -0.14092  -0.12770  -0.11180
 Alpha virt. eigenvalues --   -0.10087  -0.09235  -0.07980  -0.07962  -0.07477
 Alpha virt. eigenvalues --   -0.07204  -0.07143  -0.05643  -0.05580  -0.05336

 Mulliken charges:
               1
     1  C    0.095770
     2  C   -0.413614
     3  C   -0.443969
     4  C   -0.009911
     5  C    0.037295
     6  C   -0.436171
     7  C   -0.399689
     8  C    0.089532
     9  C   -0.336053
    10  C    0.091908
    11  C   -0.632283
    12  C    0.697959
    13  C   -0.640029
    14  C    0.679619
    15  H    0.236142
    16  H    0.254489
    17  H    0.247132
    18  H    0.221491
    19  H    0.190319
    20  H    0.222634
    21  H    0.250675
    22  H    0.258128
    23  H    0.238600
    24  H    0.250012
    25  H    0.250012
 Sum of Mulliken charges =   1.00000

 Dipole moment (field-independent basis, Debye):
    X=              0.0509    Y=             -0.4902    Z=              0.0000  Tot=              0.4929
 Quadrupole moment (field-independent basis, Debye-Ang):
   XX=            -50.7066   YY=            -36.6544   ZZ=            -84.1396
   XY=            -10.4421   XZ=             -0.0000   YZ=              0.0000

 Normal termination of Gaussian 16 at Thu Jul 28 13:53:49 2022.
