 Gaussian 16, Revision C.01,
 Gaussian 16:  ES64L-G16RevC.01  3-Jul-2019

 ---------------------------------------------------------------
 #n M062X/6-311++G(d,p) TD(NStates=1) EmpiricalDispersion=GD3 SP
 ---------------------------------------------------------------

 ----
 SP_6
 ----
 Symbolic Z-matrix:
 Charge =  1 Multiplicity = 1

                         Standard orientation:
 ---------------------------------------------------------------------
 Center     Atomic      Atomic             Coordinates (Angstroms)
 Number     Number       Type             X           Y           Z
 ---------------------------------------------------------------------
      1          6           0       -2.356024   -1.561922    0.000000
      2          6           0       -2.308641   -2.960300    0.000000
      3          6           0       -1.070621   -3.593815    0.000000
      4          6           0        0.098773   -2.846029    0.000000
      5          6           0        2.383649    1.518364    0.000000
      6          6           0        2.338614    2.937706    0.000000
      7          6           0        1.125501    3.598006    0.000000
      8          6           0       -0.039472    2.852475    0.000000
      9          6           0       -1.286727    0.675733    0.000000
     10          6           0        1.252849   -0.688241    0.000000
     11          6           0       -1.201054   -0.797419    0.000000
     12          6           0        0.081879   -1.440583    0.000000
     13          6           0        0.000000    1.422846    0.000000
     14          6           0        1.212266    0.761254    0.000000
     15          1           0       -3.327417   -1.080570    0.000000
     16          1           0       -3.216081   -3.546933    0.000000
     17          1           0       -1.029443   -4.674206    0.000000
     18          1           0        1.067965   -3.330077    0.000000
     19          1           0        2.219764   -1.172229    0.000000
     20          1           0        3.355864    1.042655    0.000000
     21          1           0        3.275270    3.477549    0.000000
     22          1           0        1.071695    4.675816    0.000000
     23          1           0       -1.014064    3.325152    0.000000
     24          1           0       -1.894752    1.007193    0.859585
     25          1           0       -1.894752    1.007193   -0.859585
 ---------------------------------------------------------------------

 SCF Done:  E(RM062X) =  -539.757030895     A.U. after   15 cycles

 Excitation energies and oscillator strengths:

 Excited State   1:      Singlet-A'     2.7701 eV  447.58 nm  f=0.0238  <S**2>=0.000
      47 -> 48         0.70366
 This state for optimization and/or second-order correction.
 Total Energy, E(TD-HF/TD-DFT) =  -539.655231046
 Copying the excited state density for this state as the 1-particle RhoCI density.

 The electronic state is 1-A'.
 Alpha  occ. eigenvalues --  -10.77592 -10.73738 -10.72738 -10.72695 -10.72065
 Alpha  occ. eigenvalues --  -10.71923 -10.71890 -10.70972 -10.70816 -10.70270
 Alpha  occ. eigenvalues --  -10.70162 -10.69998 -10.69672 -10.69270  -1.16480
 Alpha  occ. eigenvalues --   -1.12460  -1.06976  -1.05819  -1.01266  -1.00203
 Alpha  occ. eigenvalues --   -0.95754  -0.91089  -0.86399  -0.85884  -0.83787
 Alpha  occ. eigenvalues --   -0.78389  -0.76065  -0.74404  -0.69881  -0.69169
 Alpha  occ. eigenvalues --   -0.68404  -0.68105  -0.68039  -0.65011  -0.64155
 Alpha  occ. eigenvalues --   -0.62890  -0.61814  -0.60197  -0.59504  -0.59269
 Alpha  occ. eigenvalues --   -0.56801  -0.55361  -0.54513  -0.52463  -0.46870
 Alpha  occ. eigenvalues --   -0.46089  -0.44237
 Alpha virt. eigenvalues --   -0.26110  -0.14659  -0.14072  -0.12754  -0.11187
 Alpha virt. eigenvalues --   -0.10092  -0.09249  -0.07975  -0.07938  -0.07478
 Alpha virt. eigenvalues --   -0.07208  -0.07136  -0.05643  -0.05579  -0.05346

 Mulliken charges:
               1
     1  C    0.092638
     2  C   -0.386469
     3  C   -0.430828
     4  C    0.067222
     5  C   -0.053022
     6  C   -0.448714
     7  C   -0.423913
     8  C    0.091740
     9  C   -0.346894
    10  C    0.084832
    11  C   -0.642216
    12  C    0.660423
    13  C   -0.625418
    14  C    0.740140
    15  H    0.240543
    16  H    0.259690
    17  H    0.252985
    18  H    0.222578
    19  H    0.190230
    20  H    0.221899
    21  H    0.244919
    22  H    0.252933
    23  H    0.234994
    24  H    0.249854
    25  H    0.249854
 Sum of Mulliken charges =   1.00000

 Dipole moment (field-independent basis, Debye):
    X=             -0.2627    Y=             -0.8879    Z=             -0.0000  Tot=              0.9259
 Quadrupole moment (field-independent basis, Debye-Ang):
   XX=            -50.6729   YY=            -36.6419   ZZ=            -84.1329
   XY=             10.4928   XZ=              0.0000   YZ=              0.0000

 Normal termination of Gaussian 16 at Thu Jul 28 14:27:31 2022.
