 Gaussian 16, Revision C.01,
 Gaussian 16:  ES64L-G16RevC.01  3-Jul-2019

 ---------------------------------------------------------------
 #n M062X/6-311++G(d,p) TD(NStates=1) EmpiricalDispersion=GD3 SP
 ---------------------------------------------------------------

 ------
 SP_-12
 ------
 Symbolic Z-matrix:
 Charge =  1 Multiplicity = 1

                         Standard orientation:
 ---------------------------------------------------------------------
 Center     Atomic      Atomic             Coordinates (Angstroms)
 Number     Number       Type             X           Y           Z
 ---------------------------------------------------------------------
      1          6           0        0.007121    2.851562    0.000000
      2          6           0       -1.168252    3.603394    0.000000
      3          6           0       -2.364904    2.922988    0.000000
      4          6           0       -2.385777    1.482556    0.000000
      5          6           0       -0.067451   -2.864217    0.000000
      6          6           0        1.097510   -3.580594    0.000000
      7          6           0        2.327815   -2.922139    0.000000
      8          6           0        2.374576   -1.535746    0.000000
      9          6           0        1.272649    0.702023    0.000000
     10          6           0       -1.245671   -0.701108    0.000000
     11          6           0        0.000000    1.417530    0.000000
     12          6           0       -1.231096    0.722937    0.000000
     13          6           0        1.205524   -0.800107    0.000000
     14          6           0       -0.039406   -1.446298    0.000000
     15          1           0        0.958388    3.370965    0.000000
     16          1           0       -1.149519    4.682897    0.000000
     17          1           0       -3.299369    3.467700    0.000000
     18          1           0       -3.338052    0.966485    0.000000
     19          1           0       -2.190642   -1.226413    0.000000
     20          1           0       -1.014498   -3.387453    0.000000
     21          1           0        1.051080   -4.659760    0.000000
     22          1           0        3.253433   -3.478716    0.000000
     23          1           0        3.320435   -1.008844    0.000000
     24          1           0        1.856456    1.078225    0.859585
     25          1           0        1.856456    1.078225   -0.859585
 ---------------------------------------------------------------------

 SCF Done:  E(RM062X) =  -539.754671284     A.U. after   15 cycles

 Excitation energies and oscillator strengths:

 Excited State   1:      Singlet-A'     2.7135 eV  456.91 nm  f=0.0238  <S**2>=0.000
      47 -> 48         0.70334
 This state for optimization and/or second-order correction.
 Total Energy, E(TD-HF/TD-DFT) =  -539.654951252
 Copying the excited state density for this state as the 1-particle RhoCI density.

 The electronic state is 1-A'.
 Alpha  occ. eigenvalues --  -10.77654 -10.73396 -10.73105 -10.72659 -10.72195
 Alpha  occ. eigenvalues --  -10.71481 -10.71385 -10.71300 -10.71002 -10.70546
 Alpha  occ. eigenvalues --  -10.69977 -10.69966 -10.69647 -10.69585  -1.16504
 Alpha  occ. eigenvalues --   -1.12499  -1.06912  -1.05790  -1.01340  -1.00396
 Alpha  occ. eigenvalues --   -0.95625  -0.91028  -0.86452  -0.85887  -0.83811
 Alpha  occ. eigenvalues --   -0.78349  -0.76102  -0.74368  -0.69570  -0.69288
 Alpha  occ. eigenvalues --   -0.68481  -0.68168  -0.68096  -0.64941  -0.64380
 Alpha  occ. eigenvalues --   -0.62873  -0.61705  -0.60310  -0.59399  -0.59066
 Alpha  occ. eigenvalues --   -0.56952  -0.55267  -0.54676  -0.52426  -0.47024
 Alpha  occ. eigenvalues --   -0.46122  -0.44064
 Alpha virt. eigenvalues --   -0.26090  -0.14741  -0.14041  -0.12757  -0.11182
 Alpha virt. eigenvalues --   -0.10089  -0.09237  -0.07977  -0.07947  -0.07480
 Alpha virt. eigenvalues --   -0.07206  -0.07141  -0.05647  -0.05579  -0.05339

 Mulliken charges:
               1
     1  C    0.122804
     2  C   -0.392902
     3  C   -0.438026
     4  C    0.040431
     5  C   -0.017663
     6  C   -0.438004
     7  C   -0.421364
     8  C    0.067160
     9  C   -0.337320
    10  C    0.087605
    11  C   -0.625444
    12  C    0.624762
    13  C   -0.646362
    14  C    0.755089
    15  H    0.237471
    16  H    0.253535
    17  H    0.248918
    18  H    0.218157
    19  H    0.190069
    20  H    0.225385
    21  H    0.248446
    22  H    0.259164
    23  H    0.236866
    24  H    0.250611
    25  H    0.250611
 Sum of Mulliken charges =   1.00000

 Dipole moment (field-independent basis, Debye):
    X=              0.0628    Y=             -0.4948    Z=              0.0000  Tot=              0.4988
 Quadrupole moment (field-independent basis, Debye-Ang):
   XX=            -51.1065   YY=            -36.2707   ZZ=            -84.1361
   XY=            -10.1822   XZ=             -0.0000   YZ=             -0.0000

 Normal termination of Gaussian 16 at Thu Jul 28 13:18:28 2022.
