 Gaussian 16, Revision C.01,
 Gaussian 16:  ES64L-G16RevC.01  3-Jul-2019

 ---------------------------------------------------------------
 #n M062X/6-311++G(d,p) TD(NStates=1) EmpiricalDispersion=GD3 SP
 ---------------------------------------------------------------

 -----
 SP_-2
 -----
 Symbolic Z-matrix:
 Charge =  1 Multiplicity = 1

                         Standard orientation:
 ---------------------------------------------------------------------
 Center     Atomic      Atomic             Coordinates (Angstroms)
 Number     Number       Type             X           Y           Z
 ---------------------------------------------------------------------
      1          6           0        0.026710    2.843947    0.000000
      2          6           0       -1.147047    3.585650    0.000000
      3          6           0       -2.359980    2.918414    0.000000
      4          6           0       -2.397751    1.509536    0.000000
      5          6           0       -0.083453   -2.839323    0.000000
      6          6           0        1.098596   -3.587093    0.000000
      7          6           0        2.330946   -2.949502    0.000000
      8          6           0        2.370158   -1.556232    0.000000
      9          6           0        1.282717    0.683315    0.000000
     10          6           0       -1.257172   -0.679838    0.000000
     11          6           0        0.000000    1.429070    0.000000
     12          6           0       -1.223447    0.750412    0.000000
     13          6           0        1.195868   -0.793798    0.000000
     14          6           0       -0.066582   -1.437523    0.000000
     15          1           0        0.989427    3.340246    0.000000
     16          1           0       -1.106822    4.664470    0.000000
     17          1           0       -3.291938    3.465948    0.000000
     18          1           0       -3.359201    1.012337    0.000000
     19          1           0       -2.214612   -1.181919    0.000000
     20          1           0       -1.041124   -3.344466    0.000000
     21          1           0        1.048427   -4.666854    0.000000
     22          1           0        3.245270   -3.524381    0.000000
     23          1           0        3.328917   -1.051653    0.000000
     24          1           0        1.892146    1.012027    0.859585
     25          1           0        1.892146    1.012027   -0.859585
 ---------------------------------------------------------------------

 SCF Done:  E(RM062X) =  -539.759856400     A.U. after   15 cycles

 Excitation energies and oscillator strengths:

 Excited State   1:      Singlet-A'     2.8164 eV  440.23 nm  f=0.0280  <S**2>=0.000
      47 -> 48         0.70415
 This state for optimization and/or second-order correction.
 Total Energy, E(TD-HF/TD-DFT) =  -539.656356376
 Copying the excited state density for this state as the 1-particle RhoCI density.

 The electronic state is 1-A'.
 Alpha  occ. eigenvalues --  -10.77658 -10.73412 -10.73063 -10.72545 -10.72319
 Alpha  occ. eigenvalues --  -10.71554 -10.71296 -10.71184 -10.70978 -10.70718
 Alpha  occ. eigenvalues --  -10.70072 -10.69872 -10.69752 -10.69508  -1.16447
 Alpha  occ. eigenvalues --   -1.12465  -1.06948  -1.05741  -1.01308  -1.00187
 Alpha  occ. eigenvalues --   -0.95779  -0.91060  -0.86416  -0.85900  -0.83813
 Alpha  occ. eigenvalues --   -0.78398  -0.76032  -0.74417  -0.69613  -0.69223
 Alpha  occ. eigenvalues --   -0.68492  -0.68175  -0.68102  -0.64779  -0.64262
 Alpha  occ. eigenvalues --   -0.63043  -0.61861  -0.60034  -0.59650  -0.59114
 Alpha  occ. eigenvalues --   -0.56885  -0.55242  -0.54791  -0.52441  -0.46655
 Alpha  occ. eigenvalues --   -0.46061  -0.44468
 Alpha virt. eigenvalues --   -0.26091  -0.14668  -0.14095  -0.12771  -0.11179
 Alpha virt. eigenvalues --   -0.10087  -0.09232  -0.07982  -0.07966  -0.07476
 Alpha virt. eigenvalues --   -0.07203  -0.07144  -0.05643  -0.05581  -0.05334

 Mulliken charges:
               1
     1  C    0.092760
     2  C   -0.413159
     3  C   -0.442938
     4  C   -0.006134
     5  C    0.034056
     6  C   -0.437084
     7  C   -0.400311
     8  C    0.092628
     9  C   -0.335300
    10  C    0.092414
    11  C   -0.634821
    12  C    0.700708
    13  C   -0.638707
    14  C    0.676328
    15  H    0.236391
    16  H    0.255175
    17  H    0.247550
    18  H    0.221907
    19  H    0.190376
    20  H    0.222166
    21  H    0.250248
    22  H    0.257434
    23  H    0.238293
    24  H    0.250009
    25  H    0.250009
 Sum of Mulliken charges =   1.00000

 Dipole moment (field-independent basis, Debye):
    X=             -0.0220    Y=             -0.3561    Z=             -0.0000  Tot=              0.3568
 Quadrupole moment (field-independent basis, Debye-Ang):
   XX=            -50.6534   YY=            -36.7182   ZZ=            -84.1408
   XY=            -10.4729   XZ=             -0.0000   YZ=              0.0000

 Normal termination of Gaussian 16 at Thu Jul 28 14:01:31 2022.
