 Gaussian 16, Revision C.01,
 Gaussian 16:  ES64L-G16RevC.01  3-Jul-2019

 ---------------------------------------------------------------
 #n M062X/6-311++G(d,p) TD(NStates=1) EmpiricalDispersion=GD3 SP
 ---------------------------------------------------------------

 ----
 SP_4
 ----
 Symbolic Z-matrix:
 Charge =  1 Multiplicity = 1

                         Standard orientation:
 ---------------------------------------------------------------------
 Center     Atomic      Atomic             Coordinates (Angstroms)
 Number     Number       Type             X           Y           Z
 ---------------------------------------------------------------------
      1          6           0       -2.371924   -1.551380    0.000000
      2          6           0       -2.331480   -2.942827    0.000000
      3          6           0       -1.099880   -3.585269    0.000000
      4          6           0        0.079093   -2.844486    0.000000
      5          6           0        2.395877    1.503054    0.000000
      6          6           0        2.362223    2.918371    0.000000
      7          6           0        1.152906    3.588922    0.000000
      8          6           0       -0.021681    2.845173    0.000000
      9          6           0       -1.280273    0.687889    0.000000
     10          6           0        1.254882   -0.684098    0.000000
     11          6           0       -1.197711   -0.795018    0.000000
     12          6           0        0.059714   -1.439317    0.000000
     13          6           0        0.000000    1.426850    0.000000
     14          6           0        1.225779    0.743716    0.000000
     15          1           0       -3.327127   -1.040553    0.000000
     16          1           0       -3.248701   -3.513000    0.000000
     17          1           0       -1.050034   -4.664868    0.000000
     18          1           0        1.033772   -3.354817    0.000000
     19          1           0        2.209040   -1.192343    0.000000
     20          1           0        3.354700    1.000472    0.000000
     21          1           0        3.294477    3.465717    0.000000
     22          1           0        1.118202    4.667960    0.000000
     23          1           0       -0.981207    3.347914    0.000000
     24          1           0       -1.884129    1.027017    0.859585
     25          1           0       -1.884129    1.027017   -0.859585
 ---------------------------------------------------------------------

 SCF Done:  E(RM062X) =  -539.759657324     A.U. after   15 cycles

 Excitation energies and oscillator strengths:

 Excited State   1:      Singlet-A'     2.8054 eV  441.95 nm  f=0.0272  <S**2>=0.000
      47 -> 48         0.70406
 This state for optimization and/or second-order correction.
 Total Energy, E(TD-HF/TD-DFT) =  -539.656561936
 Copying the excited state density for this state as the 1-particle RhoCI density.

 The electronic state is 1-A'.
 Alpha  occ. eigenvalues --  -10.77658 -10.73388 -10.73090 -10.72559 -10.72305
 Alpha  occ. eigenvalues --  -10.71499 -10.71305 -10.71233 -10.70979 -10.70711
 Alpha  occ. eigenvalues --  -10.70038 -10.69907 -10.69703 -10.69554  -1.16451
 Alpha  occ. eigenvalues --   -1.12467  -1.06944  -1.05741  -1.01312  -1.00205
 Alpha  occ. eigenvalues --   -0.95764  -0.91054  -0.86420  -0.85900  -0.83815
 Alpha  occ. eigenvalues --   -0.78393  -0.76039  -0.74413  -0.69588  -0.69244
 Alpha  occ. eigenvalues --   -0.68489  -0.68180  -0.68101  -0.64791  -0.64281
 Alpha  occ. eigenvalues --   -0.63026  -0.61849  -0.60072  -0.59613  -0.59105
 Alpha  occ. eigenvalues --   -0.56894  -0.55248  -0.54786  -0.52438  -0.46694
 Alpha  occ. eigenvalues --   -0.46069  -0.44424
 Alpha virt. eigenvalues --   -0.26090  -0.14671  -0.14094  -0.12772  -0.11179
 Alpha virt. eigenvalues --   -0.10087  -0.09233  -0.07981  -0.07965  -0.07476
 Alpha virt. eigenvalues --   -0.07203  -0.07144  -0.05643  -0.05581  -0.05334

 Mulliken charges:
               1
     1  C    0.086568
     2  C   -0.405755
     3  C   -0.438111
     4  C    0.021720
     5  C    0.007646
     6  C   -0.441940
     7  C   -0.407992
     8  C    0.099031
     9  C   -0.334300
    10  C    0.092875
    11  C   -0.640131
    12  C    0.693249
    13  C   -0.632953
    14  C    0.680616
    15  H    0.237863
    16  H    0.257690
    17  H    0.249736
    18  H    0.222912
    19  H    0.190333
    20  H    0.221129
    21  H    0.248038
    22  H    0.254929
    23  H    0.236730
    24  H    0.250059
    25  H    0.250059
 Sum of Mulliken charges =   1.00000

 Dipole moment (field-independent basis, Debye):
    X=              0.0198    Y=             -0.3577    Z=              0.0000  Tot=              0.3583
 Quadrupole moment (field-independent basis, Debye-Ang):
   XX=            -50.7509   YY=            -36.6196   ZZ=            -84.1407
   XY=             10.4077   XZ=             -0.0000   YZ=              0.0000

 Normal termination of Gaussian 16 at Thu Jul 28 14:23:06 2022.
