 Gaussian 16, Revision C.01,
 Gaussian 16:  ES64L-G16RevC.01  3-Jul-2019

 ---------------------------------------------------------------
 #n M062X/6-311++G(d,p) TD(NStates=1) EmpiricalDispersion=GD3 SP
 ---------------------------------------------------------------

 -----
 SP_-2
 -----
 Symbolic Z-matrix:
 Charge =  1 Multiplicity = 1

                         Standard orientation:
 ---------------------------------------------------------------------
 Center     Atomic      Atomic             Coordinates (Angstroms)
 Number     Number       Type             X           Y           Z
 ---------------------------------------------------------------------
      1          6           0        0.032385    2.845464    0.000000
      2          6           0       -1.138772    3.587100    0.000000
      3          6           0       -2.353552    2.923254    0.000000
      4          6           0       -2.395166    1.514983    0.000000
      5          6           0       -0.089427   -2.838421    0.000000
      6          6           0        1.090986   -3.589696    0.000000
      7          6           0        2.325117   -2.955539    0.000000
      8          6           0        2.365745   -1.560072    0.000000
      9          6           0        1.284933    0.679140    0.000000
     10          6           0       -1.257214   -0.679808    0.000000
     11          6           0        0.000000    1.428622    0.000000
     12          6           0       -1.219488    0.756468    0.000000
     13          6           0        1.196252   -0.794075    0.000000
     14          6           0       -0.073825   -1.437391    0.000000
     15          1           0        0.999672    3.332648    0.000000
     16          1           0       -1.092398    4.665559    0.000000
     17          1           0       -3.286531    3.468947    0.000000
     18          1           0       -3.360626    1.025836    0.000000
     19          1           0       -2.218665   -1.174293    0.000000
     20          1           0       -1.051480   -3.335707    0.000000
     21          1           0        1.042912   -4.669685    0.000000
     22          1           0        3.236277   -3.535703    0.000000
     23          1           0        3.329446   -1.064413    0.000000
     24          1           0        1.896773    1.003322    0.859585
     25          1           0        1.896773    1.003322   -0.859585
 ---------------------------------------------------------------------

 SCF Done:  E(RM062X) =  -539.759314932     A.U. after   15 cycles

 Excitation energies and oscillator strengths:

 Excited State   1:      Singlet-A'     2.8137 eV  440.64 nm  f=0.0277  <S**2>=0.000
      47 -> 48         0.70402
 This state for optimization and/or second-order correction.
 Total Energy, E(TD-HF/TD-DFT) =  -539.655911955
 Copying the excited state density for this state as the 1-particle RhoCI density.

 The electronic state is 1-A'.
 Alpha  occ. eigenvalues --  -10.77647 -10.73508 -10.72959 -10.72589 -10.72265
 Alpha  occ. eigenvalues --  -10.71675 -10.71439 -10.71067 -10.70977 -10.70580
 Alpha  occ. eigenvalues --  -10.70140 -10.69838 -10.69804 -10.69425  -1.16451
 Alpha  occ. eigenvalues --   -1.12465  -1.06956  -1.05755  -1.01299  -1.00183
 Alpha  occ. eigenvalues --   -0.95782  -0.91068  -0.86411  -0.85896  -0.83807
 Alpha  occ. eigenvalues --   -0.78400  -0.76034  -0.74416  -0.69685  -0.69189
 Alpha  occ. eigenvalues --   -0.68481  -0.68147  -0.68104  -0.64817  -0.64227
 Alpha  occ. eigenvalues --   -0.63026  -0.61857  -0.60049  -0.59640  -0.59146
 Alpha  occ. eigenvalues --   -0.56866  -0.55263  -0.54739  -0.52446  -0.46669
 Alpha  occ. eigenvalues --   -0.46064  -0.44452
 Alpha virt. eigenvalues --   -0.26094  -0.14669  -0.14088  -0.12767  -0.11180
 Alpha virt. eigenvalues --   -0.10088  -0.09235  -0.07981  -0.07962  -0.07476
 Alpha virt. eigenvalues --   -0.07204  -0.07143  -0.05643  -0.05581  -0.05336

 Mulliken charges:
               1
     1  C    0.089585
     2  C   -0.418594
     3  C   -0.444705
     4  C   -0.024863
     5  C    0.048629
     6  C   -0.434910
     7  C   -0.394170
     8  C    0.095775
     9  C   -0.338349
    10  C    0.090418
    11  C   -0.634113
    12  C    0.720326
    13  C   -0.639000
    14  C    0.664204
    15  H    0.235840
    16  H    0.254734
    17  H    0.246636
    18  H    0.222257
    19  H    0.190385
    20  H    0.221875
    21  H    0.251176
    22  H    0.257870
    23  H    0.239055
    24  H    0.249970
    25  H    0.249970
 Sum of Mulliken charges =   1.00000

 Dipole moment (field-independent basis, Debye):
    X=              0.0481    Y=             -0.4887    Z=             -0.0000  Tot=              0.4911
 Quadrupole moment (field-independent basis, Debye-Ang):
   XX=            -50.6108   YY=            -36.7546   ZZ=            -84.1394
   XY=            -10.5073   XZ=              0.0000   YZ=             -0.0000

 Normal termination of Gaussian 16 at Thu Jul 28 14:02:37 2022.
