 Gaussian 16, Revision C.01,
 Gaussian 16:  ES64L-G16RevC.01  3-Jul-2019

 ---------------------------------------------------------------
 #n M062X/6-311++G(d,p) TD(NStates=1) EmpiricalDispersion=GD3 SP
 ---------------------------------------------------------------

 ----
 SP_4
 ----
 Symbolic Z-matrix:
 Charge =  1 Multiplicity = 1

                         Standard orientation:
 ---------------------------------------------------------------------
 Center     Atomic      Atomic             Coordinates (Angstroms)
 Number     Number       Type             X           Y           Z
 ---------------------------------------------------------------------
      1          6           0       -2.358675   -1.562911    0.000000
      2          6           0       -2.313958   -2.960934    0.000000
      3          6           0       -1.076998   -3.593053    0.000000
      4          6           0        0.097081   -2.841768    0.000000
      5          6           0        2.388108    1.519396    0.000000
      6          6           0        2.342869    2.932893    0.000000
      7          6           0        1.128005    3.593268    0.000000
      8          6           0       -0.038765    2.849723    0.000000
      9          6           0       -1.286931    0.675346    0.000000
     10          6           0        1.255052   -0.684010    0.000000
     11          6           0       -1.198849   -0.795886    0.000000
     12          6           0        0.081471   -1.438908    0.000000
     13          6           0        0.000000    1.425513    0.000000
     14          6           0        1.213886    0.761882    0.000000
     15          1           0       -3.328677   -1.078873    0.000000
     16          1           0       -3.221667   -3.546969    0.000000
     17          1           0       -1.033420   -4.673361    0.000000
     18          1           0        1.064880   -3.328500    0.000000
     19          1           0        2.221225   -1.169442    0.000000
     20          1           0        3.358936    1.041000    0.000000
     21          1           0        3.278202    3.474743    0.000000
     22          1           0        1.074842    4.671211    0.000000
     23          1           0       -1.011973    3.325088    0.000000
     24          1           0       -1.898055    1.000896    0.859585
     25          1           0       -1.898055    1.000896   -0.859585
 ---------------------------------------------------------------------

 SCF Done:  E(RM062X) =  -539.757877881     A.U. after   15 cycles

 Excitation energies and oscillator strengths:

 Excited State   1:      Singlet-A'     2.7935 eV  443.84 nm  f=0.0257  <S**2>=0.000
      47 -> 48         0.70375
 This state for optimization and/or second-order correction.
 Total Energy, E(TD-HF/TD-DFT) =  -539.655219891
 Copying the excited state density for this state as the 1-particle RhoCI density.

 The electronic state is 1-A'.
 Alpha  occ. eigenvalues --  -10.77614 -10.73671 -10.72774 -10.72685 -10.72138
 Alpha  occ. eigenvalues --  -10.71861 -10.71735 -10.70974 -10.70885 -10.70301
 Alpha  occ. eigenvalues --  -10.70239 -10.69961 -10.69704 -10.69306  -1.16467
 Alpha  occ. eigenvalues --   -1.12462  -1.06971  -1.05795  -1.01277  -1.00185
 Alpha  occ. eigenvalues --   -0.95775  -0.91085  -0.86401  -0.85888  -0.83792
 Alpha  occ. eigenvalues --   -0.78397  -0.76048  -0.74410  -0.69825  -0.69160
 Alpha  occ. eigenvalues --   -0.68439  -0.68107  -0.68075  -0.64931  -0.64168
 Alpha  occ. eigenvalues --   -0.62952  -0.61837  -0.60127  -0.59571  -0.59228
 Alpha  occ. eigenvalues --   -0.56820  -0.55322  -0.54597  -0.52459  -0.46765
 Alpha  occ. eigenvalues --   -0.46077  -0.44347
 Alpha virt. eigenvalues --   -0.26104  -0.14665  -0.14076  -0.12758  -0.11184
 Alpha virt. eigenvalues --   -0.10090  -0.09243  -0.07979  -0.07948  -0.07476
 Alpha virt. eigenvalues --   -0.07206  -0.07138  -0.05643  -0.05580  -0.05342

 Mulliken charges:
               1
     1  C    0.095822
     2  C   -0.387194
     3  C   -0.431703
     4  C    0.064695
     5  C   -0.049012
     6  C   -0.447478
     7  C   -0.423803
     8  C    0.089027
     9  C   -0.344939
    10  C    0.086088
    11  C   -0.641035
    12  C    0.657020
    13  C   -0.629298
    14  C    0.741536
    15  H    0.240201
    16  H    0.258996
    17  H    0.252545
    18  H    0.222084
    19  H    0.190335
    20  H    0.222253
    21  H    0.245322
    22  H    0.253610
    23  H    0.235172
    24  H    0.249878
    25  H    0.249878
 Sum of Mulliken charges =   1.00000

 Dipole moment (field-independent basis, Debye):
    X=             -0.1900    Y=             -0.7549    Z=             -0.0000  Tot=              0.7785
 Quadrupole moment (field-independent basis, Debye-Ang):
   XX=            -50.6212   YY=            -36.7171   ZZ=            -84.1354
   XY=             10.5173   XZ=              0.0000   YZ=             -0.0000

 Normal termination of Gaussian 16 at Thu Jul 28 14:19:47 2022.
