 Gaussian 16, Revision C.01,
 Gaussian 16:  ES64L-G16RevC.01  3-Jul-2019

 ---------------------------------------------------------------
 #n M062X/6-311++G(d,p) TD(NStates=1) EmpiricalDispersion=GD3 SP
 ---------------------------------------------------------------

 -----
 SP_10
 -----
 Symbolic Z-matrix:
 Charge =  1 Multiplicity = 1

                         Standard orientation:
 ---------------------------------------------------------------------
 Center     Atomic      Atomic             Coordinates (Angstroms)
 Number     Number       Type             X           Y           Z
 ---------------------------------------------------------------------
      1          6           0       -2.355152   -1.556109    0.000000
      2          6           0       -2.303885   -2.953010    0.000000
      3          6           0       -1.065525   -3.592775    0.000000
      4          6           0        0.096142   -2.855478    0.000000
      5          6           0        2.377344    1.510854    0.000000
      6          6           0        2.336596    2.942505    0.000000
      7          6           0        1.128826    3.606058    0.000000
      8          6           0       -0.035158    2.856480    0.000000
      9          6           0       -1.284112    0.680704    0.000000
     10          6           0        1.248364   -0.696728    0.000000
     11          6           0       -1.205085   -0.800175    0.000000
     12          6           0        0.075432   -1.444106    0.000000
     13          6           0        0.000000    1.417945    0.000000
     14          6           0        1.213023    0.753960    0.000000
     15          1           0       -3.324448   -1.071162    0.000000
     16          1           0       -3.213990   -3.535561    0.000000
     17          1           0       -1.027068   -4.673064    0.000000
     18          1           0        1.063794   -3.342057    0.000000
     19          1           0        2.212798   -1.185464    0.000000
     20          1           0        3.348379    1.032425    0.000000
     21          1           0        3.274850    3.480146    0.000000
     22          1           0        1.079891    4.683999    0.000000
     23          1           0       -1.008014    3.332941    0.000000
     24          1           0       -1.883526    1.028520    0.859585
     25          1           0       -1.883526    1.028520   -0.859585
 ---------------------------------------------------------------------

 SCF Done:  E(RM062X) =  -539.755576397     A.U. after   15 cycles

 Excitation energies and oscillator strengths:

 Excited State   1:      Singlet-A'     2.7170 eV  456.33 nm  f=0.0209  <S**2>=0.000
      47 -> 48         0.70355
 This state for optimization and/or second-order correction.
 Total Energy, E(TD-HF/TD-DFT) =  -539.655729060
 Copying the excited state density for this state as the 1-particle RhoCI density.

 The electronic state is 1-A'.
 Alpha  occ. eigenvalues --  -10.77568 -10.73784 -10.72803 -10.72646 -10.72058
 Alpha  occ. eigenvalues --  -10.71978 -10.71920 -10.70976 -10.70789 -10.70268
 Alpha  occ. eigenvalues --  -10.70021 -10.69983 -10.69674 -10.69277  -1.16510
 Alpha  occ. eigenvalues --   -1.12462  -1.06964  -1.05846  -1.01265  -1.00283
 Alpha  occ. eigenvalues --   -0.95683  -0.91073  -0.86411  -0.85882  -0.83789
 Alpha  occ. eigenvalues --   -0.78361  -0.76106  -0.74386  -0.69898  -0.69211
 Alpha  occ. eigenvalues --   -0.68349  -0.68097  -0.68022  -0.65141  -0.64185
 Alpha  occ. eigenvalues --   -0.62790  -0.61744  -0.60326  -0.59378  -0.59286
 Alpha  occ. eigenvalues --   -0.56804  -0.55412  -0.54420  -0.52457  -0.47098
 Alpha  occ. eigenvalues --   -0.46108  -0.44006
 Alpha virt. eigenvalues --   -0.26114  -0.14659  -0.14068  -0.12753  -0.11190
 Alpha virt. eigenvalues --   -0.10093  -0.09257  -0.07967  -0.07925  -0.07481
 Alpha virt. eigenvalues --   -0.07210  -0.07133  -0.05645  -0.05575  -0.05349

 Mulliken charges:
               1
     1  C    0.083384
     2  C   -0.391472
     3  C   -0.431297
     4  C    0.059736
     5  C   -0.040516
     6  C   -0.449269
     7  C   -0.419670
     8  C    0.101081
     9  C   -0.344615
    10  C    0.086046
    11  C   -0.643370
    12  C    0.677208
    13  C   -0.619923
    14  C    0.712282
    15  H    0.240355
    16  H    0.260653
    17  H    0.252896
    18  H    0.223797
    19  H    0.189935
    20  H    0.220754
    21  H    0.244986
    22  H    0.252028
    23  H    0.235014
    24  H    0.249988
    25  H    0.249988
 Sum of Mulliken charges =   1.00000

 Dipole moment (field-independent basis, Debye):
    X=             -0.3406    Y=             -1.0205    Z=             -0.0000  Tot=              1.0759
 Quadrupole moment (field-independent basis, Debye-Ang):
   XX=            -50.8183   YY=            -36.4621   ZZ=            -84.1298
   XY=             10.4056   XZ=              0.0000   YZ=             -0.0000

 Normal termination of Gaussian 16 at Thu Jul 28 14:44:18 2022.
