 Gaussian 16, Revision C.01,
 Gaussian 16:  ES64L-G16RevC.01  3-Jul-2019

 ---------------------------------------------------------------
 #n M062X/6-311++G(d,p) TD(NStates=1) EmpiricalDispersion=GD3 SP
 ---------------------------------------------------------------

 ----
 SP_4
 ----
 Symbolic Z-matrix:
 Charge =  1 Multiplicity = 1

                         Standard orientation:
 ---------------------------------------------------------------------
 Center     Atomic      Atomic             Coordinates (Angstroms)
 Number     Number       Type             X           Y           Z
 ---------------------------------------------------------------------
      1          6           0       -2.363099   -1.559076    0.000000
      2          6           0       -2.319818   -2.954906    0.000000
      3          6           0       -1.084637   -3.590473    0.000000
      4          6           0        0.091084   -2.842687    0.000000
      5          6           0        2.390712    1.513949    0.000000
      6          6           0        2.349334    2.928063    0.000000
      7          6           0        1.136311    3.591837    0.000000
      8          6           0       -0.033060    2.848218    0.000000
      9          6           0       -1.284723    0.679535    0.000000
     10          6           0        1.254988   -0.684038    0.000000
     11          6           0       -1.198466   -0.795589    0.000000
     12          6           0        0.074217   -1.439069    0.000000
     13          6           0        0.000000    1.425951    0.000000
     14          6           0        1.217872    0.755838    0.000000
     15          1           0       -3.328202   -1.066088    0.000000
     16          1           0       -3.230718   -3.535664    0.000000
     17          1           0       -1.038972   -4.670531    0.000000
     18          1           0        1.054540   -3.337303    0.000000
     19          1           0        2.217185   -1.177091    0.000000
     20          1           0        3.357569    1.027475    0.000000
     21          1           0        3.283629    3.471737    0.000000
     22          1           0        1.089301    4.670167    0.000000
     23          1           0       -1.001742    3.332727    0.000000
     24          1           0       -1.893441    1.009621    0.859585
     25          1           0       -1.893441    1.009621   -0.859585
 ---------------------------------------------------------------------

 SCF Done:  E(RM062X) =  -539.758798275     A.U. after   15 cycles

 Excitation energies and oscillator strengths:

 Excited State   1:      Singlet-A'     2.7981 eV  443.11 nm  f=0.0262  <S**2>=0.000
      47 -> 48         0.70391
 This state for optimization and/or second-order correction.
 Total Energy, E(TD-HF/TD-DFT) =  -539.655971488
 Copying the excited state density for this state as the 1-particle RhoCI density.

 The electronic state is 1-A'.
 Alpha  occ. eigenvalues --  -10.77633 -10.73579 -10.72881 -10.72645 -10.72195
 Alpha  occ. eigenvalues --  -10.71739 -10.71592 -10.70999 -10.70976 -10.70437
 Alpha  occ. eigenvalues --  -10.70172 -10.69875 -10.69772 -10.69388  -1.16459
 Alpha  occ. eigenvalues --   -1.12463  -1.06959  -1.05770  -1.01291  -1.00193
 Alpha  occ. eigenvalues --   -0.95769  -0.91070  -0.86410  -0.85894  -0.83803
 Alpha  occ. eigenvalues --   -0.78395  -0.76045  -0.74412  -0.69732  -0.69187
 Alpha  occ. eigenvalues --   -0.68457  -0.68122  -0.68104  -0.64879  -0.64212
 Alpha  occ. eigenvalues --   -0.62982  -0.61843  -0.60107  -0.59584  -0.59175
 Alpha  occ. eigenvalues --   -0.56851  -0.55301  -0.54672  -0.52449  -0.46740
 Alpha  occ. eigenvalues --   -0.46073  -0.44376
 Alpha virt. eigenvalues --   -0.26098  -0.14665  -0.14086  -0.12765  -0.11182
 Alpha virt. eigenvalues --   -0.10089  -0.09239  -0.07979  -0.07956  -0.07477
 Alpha virt. eigenvalues --   -0.07205  -0.07141  -0.05643  -0.05580  -0.05338

 Mulliken charges:
               1
     1  C    0.092617
     2  C   -0.393501
     3  C   -0.434035
     4  C    0.051614
     5  C   -0.028765
     6  C   -0.445826
     7  C   -0.418925
     8  C    0.092473
     9  C   -0.339569
    10  C    0.089691
    11  C   -0.640273
    12  C    0.667663
    13  C   -0.631190
    14  C    0.718128
    15  H    0.239382
    16  H    0.258564
    17  H    0.251612
    18  H    0.222358
    19  H    0.190319
    20  H    0.221866
    21  H    0.246226
    22  H    0.254049
    23  H    0.235620
    24  H    0.249952
    25  H    0.249952
 Sum of Mulliken charges =   1.00000

 Dipole moment (field-independent basis, Debye):
    X=             -0.1208    Y=             -0.6227    Z=             -0.0000  Tot=              0.6343
 Quadrupole moment (field-independent basis, Debye-Ang):
   XX=            -50.6634   YY=            -36.6869   ZZ=            -84.1378
   XY=             10.4786   XZ=              0.0000   YZ=             -0.0000

 Normal termination of Gaussian 16 at Thu Jul 28 14:20:54 2022.
