 Gaussian 16, Revision C.01,
 Gaussian 16:  ES64L-G16RevC.01  3-Jul-2019

 ---------------------------------------------------------------
 #n M062X/6-311++G(d,p) TD(NStates=1) EmpiricalDispersion=GD3 SP
 ---------------------------------------------------------------

 ----
 SP_6
 ----
 Symbolic Z-matrix:
 Charge =  1 Multiplicity = 1

                         Standard orientation:
 ---------------------------------------------------------------------
 Center     Atomic      Atomic             Coordinates (Angstroms)
 Number     Number       Type             X           Y           Z
 ---------------------------------------------------------------------
      1          6           0       -2.364871   -1.554236    0.000000
      2          6           0       -2.320366   -2.948239    0.000000
      3          6           0       -1.085922   -3.588659    0.000000
      4          6           0        0.086738   -2.847861    0.000000
      5          6           0        2.388852    1.507468    0.000000
      6          6           0        2.351577    2.928034    0.000000
      7          6           0        1.142158    3.595128    0.000000
      8          6           0       -0.028032    2.849456    0.000000
      9          6           0       -1.282294    0.684115    0.000000
     10          6           0        1.252700   -0.688297    0.000000
     11          6           0       -1.200302   -0.796809    0.000000
     12          6           0        0.067353   -1.440889    0.000000
     13          6           0        0.000000    1.423725    0.000000
     14          6           0        1.220225    0.749155    0.000000
     15          1           0       -3.326450   -1.054983    0.000000
     16          1           0       -3.234180   -3.524303    0.000000
     17          1           0       -1.040578   -4.668545    0.000000
     18          1           0        1.047230   -3.347680    0.000000
     19          1           0        2.211642   -1.187526    0.000000
     20          1           0        3.353110    1.015599    0.000000
     21          1           0        3.286158    3.471515    0.000000
     22          1           0        1.100667    4.673698    0.000000
     23          1           0       -0.993556    3.340423    0.000000
     24          1           0       -1.885466    1.024630    0.859585
     25          1           0       -1.885466    1.024630   -0.859585
 ---------------------------------------------------------------------

 SCF Done:  E(RM062X) =  -539.758648085     A.U. after   15 cycles

 Excitation energies and oscillator strengths:

 Excited State   1:      Singlet-A'     2.7808 eV  445.86 nm  f=0.0251  <S**2>=0.000
      47 -> 48         0.70385
 This state for optimization and/or second-order correction.
 Total Energy, E(TD-HF/TD-DFT) =  -539.656456494
 Copying the excited state density for this state as the 1-particle RhoCI density.

 The electronic state is 1-A'.
 Alpha  occ. eigenvalues --  -10.77634 -10.73555 -10.72909 -10.72660 -10.72182
 Alpha  occ. eigenvalues --  -10.71681 -10.71601 -10.71046 -10.70978 -10.70431
 Alpha  occ. eigenvalues --  -10.70137 -10.69825 -10.69806 -10.69433  -1.16466
 Alpha  occ. eigenvalues --   -1.12465  -1.06950  -1.05769  -1.01298  -1.00223
 Alpha  occ. eigenvalues --   -0.95744  -0.91060  -0.86417  -0.85895  -0.83807
 Alpha  occ. eigenvalues --   -0.78385  -0.76056  -0.74406  -0.69694  -0.69218
 Alpha  occ. eigenvalues --   -0.68449  -0.68135  -0.68100  -0.64902  -0.64242
 Alpha  occ. eigenvalues --   -0.62954  -0.61825  -0.60155  -0.59535  -0.59159
 Alpha  occ. eigenvalues --   -0.56867  -0.55312  -0.54668  -0.52443  -0.46806
 Alpha  occ. eigenvalues --   -0.46082  -0.44305
 Alpha virt. eigenvalues --   -0.26096  -0.14666  -0.14088  -0.12767  -0.11182
 Alpha virt. eigenvalues --   -0.10088  -0.09239  -0.07977  -0.07955  -0.07478
 Alpha virt. eigenvalues --   -0.07205  -0.07141  -0.05644  -0.05579  -0.05338

 Mulliken charges:
               1
     1  C    0.086473
     2  C   -0.399062
     3  C   -0.435246
     4  C    0.040430
     5  C   -0.013716
     6  C   -0.445008
     7  C   -0.414042
     8  C    0.098784
     9  C   -0.337031
    10  C    0.091178
    11  C   -0.641187
    12  C    0.682816
    13  C   -0.629403
    14  C    0.695285
    15  H    0.238909
    16  H    0.258825
    17  H    0.251099
    18  H    0.223102
    19  H    0.190230
    20  H    0.221084
    21  H    0.246711
    22  H    0.253808
    23  H    0.235900
    24  H    0.250031
    25  H    0.250031
 Sum of Mulliken charges =   1.00000

 Dipole moment (field-independent basis, Debye):
    X=             -0.1241    Y=             -0.6238    Z=              0.0000  Tot=              0.6361
 Quadrupole moment (field-independent basis, Debye-Ang):
   XX=            -50.7593   YY=            -36.5869   ZZ=            -84.1378
   XY=             10.4135   XZ=             -0.0000   YZ=              0.0000

 Normal termination of Gaussian 16 at Thu Jul 28 14:29:58 2022.
