 Gaussian 16, Revision C.01,
 Gaussian 16:  ES64L-G16RevC.01  3-Jul-2019

 ---------------------------------------------------------------
 #n M062X/6-311++G(d,p) TD(NStates=1) EmpiricalDispersion=GD3 SP
 ---------------------------------------------------------------

 ------
 SP_-14
 ------
 Symbolic Z-matrix:
 Charge =  1 Multiplicity = 1

                         Standard orientation:
 ---------------------------------------------------------------------
 Center     Atomic      Atomic             Coordinates (Angstroms)
 Number     Number       Type             X           Y           Z
 ---------------------------------------------------------------------
      1          6           0        0.036619    2.861991    0.000000
      2          6           0       -1.123752    3.615546    0.000000
      3          6           0       -2.328032    2.952142    0.000000
      4          6           0       -2.368424    1.508795    0.000000
      5          6           0       -0.099588   -2.863999    0.000000
      6          6           0        1.052729   -3.594286    0.000000
      7          6           0        2.293232   -2.951746    0.000000
      8          6           0        2.349846   -1.554149    0.000000
      9          6           0        1.283722    0.681469    0.000000
     10          6           0       -1.243993   -0.705189    0.000000
     11          6           0        0.000000    1.412612    0.000000
     12          6           0       -1.209788    0.752715    0.000000
     13          6           0        1.209478   -0.803268    0.000000
     14          6           0       -0.076277   -1.447464    0.000000
     15          1           0        1.012246    3.333062    0.000000
     16          1           0       -1.073518    4.693225    0.000000
     17          1           0       -3.268936    3.485787    0.000000
     18          1           0       -3.342234    1.035752    0.000000
     19          1           0       -2.209919   -1.191029    0.000000
     20          1           0       -1.070027   -3.345197    0.000000
     21          1           0        1.019062   -4.674750    0.000000
     22          1           0        3.202797   -3.535507    0.000000
     23          1           0        3.321927   -1.074586    0.000000
     24          1           0        1.876984    1.041120    0.859585
     25          1           0        1.876984    1.041120   -0.859585
 ---------------------------------------------------------------------

 SCF Done:  E(RM062X) =  -539.752023480     A.U. after   15 cycles

 Excitation energies and oscillator strengths:

 Excited State   1:      Singlet-A'     2.6469 eV  468.41 nm  f=0.0181  <S**2>=0.000
      47 -> 48         0.70340
 This state for optimization and/or second-order correction.
 Total Energy, E(TD-HF/TD-DFT) =  -539.654751321
 Copying the excited state density for this state as the 1-particle RhoCI density.

 The electronic state is 1-A'.
 Alpha  occ. eigenvalues --  -10.77507 -10.73915 -10.72897 -10.72489 -10.72374
 Alpha  occ. eigenvalues --  -10.72030 -10.71826 -10.70978 -10.70643 -10.70330
 Alpha  occ. eigenvalues --  -10.70050 -10.69759 -10.69605 -10.69202  -1.16564
 Alpha  occ. eigenvalues --   -1.12465  -1.06966  -1.05921  -1.01244  -1.00383
 Alpha  occ. eigenvalues --   -0.95591  -0.91069  -0.86416  -0.85870  -0.83776
 Alpha  occ. eigenvalues --   -0.78323  -0.76169  -0.74361  -0.70020  -0.69242
 Alpha  occ. eigenvalues --   -0.68257  -0.68089  -0.67942  -0.65354  -0.64173
 Alpha  occ. eigenvalues --   -0.62655  -0.61632  -0.60485  -0.59369  -0.59234
 Alpha  occ. eigenvalues --   -0.56770  -0.55475  -0.54222  -0.52462  -0.47414
 Alpha  occ. eigenvalues --   -0.46130  -0.43694
 Alpha virt. eigenvalues --   -0.26129  -0.14660  -0.14045  -0.12741  -0.11197
 Alpha virt. eigenvalues --   -0.10097  -0.09275  -0.07955  -0.07896  -0.07486
 Alpha virt. eigenvalues --   -0.07214  -0.07124  -0.05646  -0.05571  -0.05359

 Mulliken charges:
               1
     1  C    0.106716
     2  C   -0.419924
     3  C   -0.451629
     4  C   -0.048293
     5  C    0.064270
     6  C   -0.429352
     7  C   -0.390109
     8  C    0.077437
     9  C   -0.349131
    10  C    0.082309
    11  C   -0.609960
    12  C    0.709195
    13  C   -0.645056
    14  C    0.682723
    15  H    0.234660
    16  H    0.250712
    17  H    0.244154
    18  H    0.220075
    19  H    0.189533
    20  H    0.224739
    21  H    0.253729
    22  H    0.262046
    23  H    0.240993
    24  H    0.250082
    25  H    0.250082
 Sum of Mulliken charges =   1.00000

 Dipole moment (field-independent basis, Debye):
    X=              0.4881    Y=             -1.2817    Z=             -0.0000  Tot=              1.3715
 Quadrupole moment (field-independent basis, Debye-Ang):
   XX=            -50.9189   YY=            -36.2944   ZZ=            -84.1218
   XY=            -10.3675   XZ=             -0.0000   YZ=             -0.0000

 Normal termination of Gaussian 16 at Thu Jul 28 13:16:14 2022.
