 Gaussian 16, Revision C.01,
 Gaussian 16:  ES64L-G16RevC.01  3-Jul-2019

 ---------------------------------------------------------------
 #n M062X/6-311++G(d,p) TD(NStates=1) EmpiricalDispersion=GD3 SP
 ---------------------------------------------------------------

 ----
 SP_2
 ----
 Symbolic Z-matrix:
 Charge =  1 Multiplicity = 1

                         Standard orientation:
 ---------------------------------------------------------------------
 Center     Atomic      Atomic             Coordinates (Angstroms)
 Number     Number       Type             X           Y           Z
 ---------------------------------------------------------------------
      1          6           0        2.493805   -1.355847    0.000000
      2          6           0        3.698131   -0.663092    0.000000
      3          6           0        3.680421    0.724295    0.000000
      4          6           0        2.464989    1.414472    0.000000
      5          6           0       -2.461306    1.400616    0.000000
      6          6           0       -3.687275    0.703354    0.000000
      7          6           0       -3.704865   -0.680901    0.000000
      8          6           0       -2.491496   -1.365016    0.000000
      9          6           0       -0.000267   -1.453372    0.000000
     10          6           0        0.000000    1.429192    0.000000
     11          6           0        1.266294   -0.673836    0.000000
     12          6           0        1.239816    0.729785    0.000000
     13          6           0       -1.257808   -0.680280    0.000000
     14          6           0       -1.235135    0.731835    0.000000
     15          1           0        2.485700   -2.438880    0.000000
     16          1           0        4.632416   -1.204400    0.000000
     17          1           0        4.603946    1.285588    0.000000
     18          1           0        2.471705    2.496808    0.000000
     19          1           0        0.003325    2.510277    0.000000
     20          1           0       -2.463378    2.483335    0.000000
     21          1           0       -4.614544    1.259094    0.000000
     22          1           0       -4.641079   -1.218999    0.000000
     23          1           0       -2.490433   -2.448432    0.000000
     24          1           0       -0.009738   -2.145810    0.859585
     25          1           0       -0.009738   -2.145810   -0.859585
 ---------------------------------------------------------------------

 SCF Done:  E(RM062X) =  -539.759982965     A.U. after   15 cycles

 Excitation energies and oscillator strengths:

 Excited State   1:      Singlet-A'     2.8196 eV  439.73 nm  f=0.0286  <S**2>=0.000
      47 -> 48         0.70415
 This state for optimization and/or second-order correction.
 Total Energy, E(TD-HF/TD-DFT) =  -539.656366177
 Copying the excited state density for this state as the 1-particle RhoCI density.

 The electronic state is 1-A'.
 Alpha  occ. eigenvalues --  -10.77665 -10.73267 -10.73215 -10.72449 -10.72421
 Alpha  occ. eigenvalues --  -10.71420 -10.71316 -10.71012 -10.70997 -10.70980
 Alpha  occ. eigenvalues --  -10.70007 -10.69937 -10.69676 -10.69582  -1.16444
 Alpha  occ. eigenvalues --   -1.12467  -1.06944  -1.05733  -1.01314  -1.00192
 Alpha  occ. eigenvalues --   -0.95778  -0.91056  -0.86419  -0.85901  -0.83815
 Alpha  occ. eigenvalues --   -0.78399  -0.76029  -0.74416  -0.69566  -0.69241
 Alpha  occ. eigenvalues --   -0.68506  -0.68192  -0.68103  -0.64741  -0.64288
 Alpha  occ. eigenvalues --   -0.63061  -0.61861  -0.60015  -0.59669  -0.59092
 Alpha  occ. eigenvalues --   -0.56898  -0.55211  -0.54837  -0.52438  -0.46633
 Alpha  occ. eigenvalues --   -0.46060  -0.44491
 Alpha virt. eigenvalues --   -0.26088  -0.14674  -0.14094  -0.12772  -0.11179
 Alpha virt. eigenvalues --   -0.10086  -0.09230  -0.07983  -0.07969  -0.07476
 Alpha virt. eigenvalues --   -0.07203  -0.07145  -0.05643  -0.05582  -0.05333

 Mulliken charges:
               1
     1  C    0.087164
     2  C   -0.412046
     3  C   -0.440982
     4  C    0.001198
     5  C    0.027341
     6  C   -0.438937
     7  C   -0.401437
     8  C    0.099491
     9  C   -0.334443
    10  C    0.092796
    11  C   -0.638259
    12  C    0.705233
    13  C   -0.634839
    14  C    0.668233
    15  H    0.236903
    16  H    0.256556
    17  H    0.248380
    18  H    0.222760
    19  H    0.190402
    20  H    0.221234
    21  H    0.249376
    22  H    0.256053
    23  H    0.237673
    24  H    0.250074
    25  H    0.250074
 Sum of Mulliken charges =   1.00000

 Dipole moment (field-independent basis, Debye):
    X=              0.0019    Y=              0.1875    Z=             -0.0000  Tot=              0.1875
 Quadrupole moment (field-independent basis, Debye-Ang):
   XX=            -31.1179   YY=            -56.2625   ZZ=            -84.1417
   XY=              0.2029   XZ=             -0.0000   YZ=              0.0000

 Normal termination of Gaussian 16 at Thu Jul 28 14:16:31 2022.
