 Gaussian 16, Revision C.01,
 Gaussian 16:  ES64L-G16RevC.01  3-Jul-2019

 ---------------------------------------------------------------
 #n M062X/6-311++G(d,p) TD(NStates=1) EmpiricalDispersion=GD3 SP
 ---------------------------------------------------------------

 -----
 SP_-2
 -----
 Symbolic Z-matrix:
 Charge =  1 Multiplicity = 1

                         Standard orientation:
 ---------------------------------------------------------------------
 Center     Atomic      Atomic             Coordinates (Angstroms)
 Number     Number       Type             X           Y           Z
 ---------------------------------------------------------------------
      1          6           0        0.038070    2.846971    0.000000
      2          6           0       -1.130492    3.588532    0.000000
      3          6           0       -2.347110    2.928082    0.000000
      4          6           0       -2.392566    1.520428    0.000000
      5          6           0       -0.095402   -2.837506    0.000000
      6          6           0        1.083365   -3.592285    0.000000
      7          6           0        2.319269   -2.961567    0.000000
      8          6           0        2.361325   -1.563903    0.000000
      9          6           0        1.287138    0.674957    0.000000
     10          6           0       -1.257263   -0.679780    0.000000
     11          6           0        0.000000    1.428181    0.000000
     12          6           0       -1.215506    0.762511    0.000000
     13          6           0        1.196640   -0.794360    0.000000
     14          6           0       -0.081069   -1.437233    0.000000
     15          1           0        1.009892    3.325019    0.000000
     16          1           0       -1.077969    4.666608    0.000000
     17          1           0       -3.281122    3.471944    0.000000
     18          1           0       -3.362006    1.039351    0.000000
     19          1           0       -2.222696   -1.166651    0.000000
     20          1           0       -1.061807   -3.326918    0.000000
     21          1           0        1.037382   -4.672517    0.000000
     22          1           0        3.227245   -3.547008    0.000000
     23          1           0        3.329934   -1.077184    0.000000
     24          1           0        1.901372    0.994600    0.859585
     25          1           0        1.901372    0.994600   -0.859585
 ---------------------------------------------------------------------

 SCF Done:  E(RM062X) =  -539.758446448     A.U. after   15 cycles

 Excitation energies and oscillator strengths:

 Excited State   1:      Singlet-A'     2.8104 eV  441.16 nm  f=0.0275  <S**2>=0.000
      47 -> 48         0.70380
 This state for optimization and/or second-order correction.
 Total Energy, E(TD-HF/TD-DFT) =  -539.655165522
 Copying the excited state density for this state as the 1-particle RhoCI density.

 The electronic state is 1-A'.
 Alpha  occ. eigenvalues --  -10.77632 -10.73603 -10.72854 -10.72631 -10.72209
 Alpha  occ. eigenvalues --  -10.71796 -10.71582 -10.70975 -10.70952 -10.70442
 Alpha  occ. eigenvalues --  -10.70206 -10.69924 -10.69737 -10.69342  -1.16457
 Alpha  occ. eigenvalues --   -1.12465  -1.06966  -1.05777  -1.01287  -1.00177
 Alpha  occ. eigenvalues --   -0.95786  -0.91081  -0.86404  -0.85891  -0.83797
 Alpha  occ. eigenvalues --   -0.78402  -0.76036  -0.74414  -0.69772  -0.69156
 Alpha  occ. eigenvalues --   -0.68469  -0.68108  -0.68107  -0.64862  -0.64185
 Alpha  occ. eigenvalues --   -0.63004  -0.61851  -0.60066  -0.59629  -0.59190
 Alpha  occ. eigenvalues --   -0.56840  -0.55283  -0.54673  -0.52455  -0.46685
 Alpha  occ. eigenvalues --   -0.46068  -0.44432
 Alpha virt. eigenvalues --   -0.26100  -0.14672  -0.14077  -0.12761  -0.11182
 Alpha virt. eigenvalues --   -0.10089  -0.09238  -0.07982  -0.07956  -0.07476
 Alpha virt. eigenvalues --   -0.07205  -0.07140  -0.05643  -0.05581  -0.05339

 Mulliken charges:
               1
     1  C    0.086293
     2  C   -0.423639
     3  C   -0.446258
     4  C   -0.045001
     5  C    0.062014
     6  C   -0.432554
     7  C   -0.387912
     8  C    0.099045
     9  C   -0.343222
    10  C    0.087084
    11  C   -0.632723
    12  C    0.743074
    13  C   -0.639746
    14  C    0.653461
    15  H    0.235360
    16  H    0.254293
    17  H    0.245722
    18  H    0.222617
    19  H    0.190410
    20  H    0.221588
    21  H    0.252102
    22  H    0.258303
    23  H    0.239858
    24  H    0.249916
    25  H    0.249916
 Sum of Mulliken charges =   1.00000

 Dipole moment (field-independent basis, Debye):
    X=              0.1176    Y=             -0.6213    Z=              0.0000  Tot=              0.6324
 Quadrupole moment (field-independent basis, Debye-Ang):
   XX=            -50.5691   YY=            -36.7887   ZZ=            -84.1373
   XY=            -10.5438   XZ=              0.0000   YZ=              0.0000

 Normal termination of Gaussian 16 at Thu Jul 28 14:03:47 2022.
