 Gaussian 16, Revision C.01,
 Gaussian 16:  ES64L-G16RevC.01  3-Jul-2019

 ---------------------------------------------------------------
 #n M062X/6-311++G(d,p) TD(NStates=1) EmpiricalDispersion=GD3 SP
 ---------------------------------------------------------------

 ------
 SP_-12
 ------
 Symbolic Z-matrix:
 Charge =  1 Multiplicity = 1

                         Standard orientation:
 ---------------------------------------------------------------------
 Center     Atomic      Atomic             Coordinates (Angstroms)
 Number     Number       Type             X           Y           Z
 ---------------------------------------------------------------------
      1          6           0        0.041667    2.860736    0.000000
      2          6           0       -1.117889    3.612229    0.000000
      3          6           0       -2.325763    2.952155    0.000000
      4          6           0       -2.370262    1.515275    0.000000
      5          6           0       -0.103940   -2.858805    0.000000
      6          6           0        1.051423   -3.596076    0.000000
      7          6           0        2.292652   -2.958401    0.000000
      8          6           0        2.348062   -1.558977    0.000000
      9          6           0        1.286135    0.676876    0.000000
     10          6           0       -1.246296   -0.700933    0.000000
     11          6           0        0.000000    1.414849    0.000000
     12          6           0       -1.207402    0.759380    0.000000
     13          6           0        1.207646   -0.802062    0.000000
     14          6           0       -0.083145   -1.445606    0.000000
     15          1           0        1.020399    3.325319    0.000000
     16          1           0       -1.062136    4.689634    0.000000
     17          1           0       -3.266399    3.486008    0.000000
     18          1           0       -3.346624    1.047654    0.000000
     19          1           0       -2.215432   -1.180568    0.000000
     20          1           0       -1.077297   -3.334771    0.000000
     21          1           0        1.017428   -4.676735    0.000000
     22          1           0        3.199272   -3.546841    0.000000
     23          1           0        3.323614   -1.085711    0.000000
     24          1           0        1.884922    1.026083    0.859585
     25          1           0        1.884922    1.026083   -0.859585
 ---------------------------------------------------------------------

 SCF Done:  E(RM062X) =  -539.752808539     A.U. after   15 cycles

 Excitation energies and oscillator strengths:

 Excited State   1:      Singlet-A'     2.6756 eV  463.39 nm  f=0.0187  <S**2>=0.000
      47 -> 48         0.70343
 This state for optimization and/or second-order correction.
 Total Energy, E(TD-HF/TD-DFT) =  -539.654483356
 Copying the excited state density for this state as the 1-particle RhoCI density.

 The electronic state is 1-A'.
 Alpha  occ. eigenvalues --  -10.77504 -10.73934 -10.72882 -10.72456 -10.72362
 Alpha  occ. eigenvalues --  -10.72096 -10.71839 -10.70971 -10.70605 -10.70364
 Alpha  occ. eigenvalues --  -10.70104 -10.69761 -10.69572 -10.69160  -1.16546
 Alpha  occ. eigenvalues --   -1.12458  -1.06987  -1.05918  -1.01230  -1.00312
 Alpha  occ. eigenvalues --   -0.95647  -0.91093  -0.86398  -0.85869  -0.83767
 Alpha  occ. eigenvalues --   -0.78345  -0.76143  -0.74374  -0.70063  -0.69215
 Alpha  occ. eigenvalues --   -0.68274  -0.68097  -0.67913  -0.65303  -0.64132
 Alpha  occ. eigenvalues --   -0.62685  -0.61682  -0.60428  -0.59403  -0.59292
 Alpha  occ. eigenvalues --   -0.56741  -0.55464  -0.54225  -0.52475  -0.47295
 Alpha  occ. eigenvalues --   -0.46123  -0.43808
 Alpha virt. eigenvalues --   -0.26132  -0.14648  -0.14049  -0.12739  -0.11197
 Alpha virt. eigenvalues --   -0.10098  -0.09274  -0.07959  -0.07899  -0.07484
 Alpha virt. eigenvalues --   -0.07214  -0.07123  -0.05645  -0.05572  -0.05360

 Mulliken charges:
               1
     1  C    0.099691
     2  C   -0.423869
     3  C   -0.452516
     4  C   -0.064934
     5  C    0.073680
     6  C   -0.428034
     7  C   -0.384265
     8  C    0.083314
     9  C   -0.354189
    10  C    0.079393
    11  C   -0.610654
    12  C    0.736980
    13  C   -0.645337
    14  C    0.669542
    15  H    0.234524
    16  H    0.250940
    17  H    0.243704
    18  H    0.220917
    19  H    0.189739
    20  H    0.224036
    21  H    0.254279
    22  H    0.261775
    23  H    0.241553
    24  H    0.249865
    25  H    0.249865
 Sum of Mulliken charges =   1.00000

 Dipole moment (field-independent basis, Debye):
    X=              0.4821    Y=             -1.2819    Z=              0.0000  Tot=              1.3695
 Quadrupole moment (field-independent basis, Debye-Ang):
   XX=            -50.8248   YY=            -36.3948   ZZ=            -84.1221
   XY=            -10.4322   XZ=             -0.0000   YZ=              0.0000

 Normal termination of Gaussian 16 at Thu Jul 28 13:25:07 2022.
