 Gaussian 16, Revision C.01,
 Gaussian 16:  ES64L-G16RevC.01  3-Jul-2019

 ---------------------------------------------------------------
 #n M062X/6-311++G(d,p) TD(NStates=1) EmpiricalDispersion=GD3 SP
 ---------------------------------------------------------------

 ----
 SP_2
 ----
 Symbolic Z-matrix:
 Charge =  1 Multiplicity = 1

                         Standard orientation:
 ---------------------------------------------------------------------
 Center     Atomic      Atomic             Coordinates (Angstroms)
 Number     Number       Type             X           Y           Z
 ---------------------------------------------------------------------
      1          6           0        2.491245   -1.367108    0.000000
      2          6           0        3.692980   -0.678794    0.000000
      3          6           0        3.682915    0.708654    0.000000
      4          6           0        2.472104    1.404915    0.000000
      5          6           0       -2.454210    1.410125    0.000000
      6          6           0       -3.684803    0.719015    0.000000
      7          6           0       -3.710025   -0.665146    0.000000
      8          6           0       -2.494047   -1.353755    0.000000
      9          6           0       -0.009627   -1.453350    0.000000
     10          6           0       -0.000000    1.429193    0.000000
     11          6           0        1.265533   -0.673352    0.000000
     12          6           0        1.246739    0.717167    0.000000
     13          6           0       -1.258603   -0.680799    0.000000
     14          6           0       -1.228144    0.744400    0.000000
     15          1           0        2.462822   -2.449658    0.000000
     16          1           0        4.620883   -1.230558    0.000000
     17          1           0        4.604096    1.273529    0.000000
     18          1           0        2.496736    2.486780    0.000000
     19          1           0        0.020435    2.510224    0.000000
     20          1           0       -2.438363    2.493211    0.000000
     21          1           0       -4.614461    1.271202    0.000000
     22          1           0       -4.652559   -1.192750    0.000000
     23          1           0       -2.513305   -2.437527    0.000000
     24          1           0       -0.029315   -2.145722    0.859585
     25          1           0       -0.029315   -2.145722   -0.859585
 ---------------------------------------------------------------------

 SCF Done:  E(RM062X) =  -539.758778389     A.U. after   15 cycles

 Excitation energies and oscillator strengths:

 Excited State   1:      Singlet-A'     2.8198 eV  439.69 nm  f=0.0292  <S**2>=0.000
      47 -> 48         0.70373
 This state for optimization and/or second-order correction.
 Total Energy, E(TD-HF/TD-DFT) =  -539.655152881
 Copying the excited state density for this state as the 1-particle RhoCI density.

 The electronic state is 1-A'.
 Alpha  occ. eigenvalues --  -10.77656 -10.73464 -10.73011 -10.72516 -10.72346
 Alpha  occ. eigenvalues --  -10.71662 -10.71278 -10.71083 -10.70981 -10.70731
 Alpha  occ. eigenvalues --  -10.70142 -10.69847 -10.69802 -10.69414  -1.16449
 Alpha  occ. eigenvalues --   -1.12472  -1.06954  -1.05755  -1.01305  -1.00192
 Alpha  occ. eigenvalues --   -0.95783  -0.91070  -0.86412  -0.85894  -0.83805
 Alpha  occ. eigenvalues --   -0.78403  -0.76028  -0.74414  -0.69677  -0.69169
 Alpha  occ. eigenvalues --   -0.68508  -0.68157  -0.68108  -0.64771  -0.64242
 Alpha  occ. eigenvalues --   -0.63057  -0.61852  -0.60013  -0.59681  -0.59127
 Alpha  occ. eigenvalues --   -0.56877  -0.55212  -0.54787  -0.52447  -0.46620
 Alpha  occ. eigenvalues --   -0.46065  -0.44497
 Alpha virt. eigenvalues --   -0.26093  -0.14689  -0.14075  -0.12764  -0.11180
 Alpha virt. eigenvalues --   -0.10088  -0.09232  -0.07985  -0.07964  -0.07475
 Alpha virt. eigenvalues --   -0.07204  -0.07144  -0.05643  -0.05582  -0.05335

 Mulliken charges:
               1
     1  C    0.081207
     2  C   -0.423016
     3  C   -0.443985
     4  C   -0.037057
     5  C    0.056355
     6  C   -0.434199
     7  C   -0.389256
     8  C    0.106211
     9  C   -0.340469
    10  C    0.088345
    11  C   -0.637728
    12  C    0.745426
    13  C   -0.636151
    14  C    0.644519
    15  H    0.235760
    16  H    0.255670
    17  H    0.246516
    18  H    0.223379
    19  H    0.190476
    20  H    0.220592
    21  H    0.251197
    22  H    0.256925
    23  H    0.239159
    24  H    0.250062
    25  H    0.250062
 Sum of Mulliken charges =   1.00000

 Dipole moment (field-independent basis, Debye):
    X=             -0.2987    Y=              0.1886    Z=             -0.0000  Tot=              0.3532
 Quadrupole moment (field-independent basis, Debye-Ang):
   XX=            -31.1150   YY=            -56.2691   ZZ=            -84.1398
   XY=              0.3087   XZ=             -0.0000   YZ=              0.0000

 Normal termination of Gaussian 16 at Thu Jul 28 14:18:41 2022.
