 Gaussian 16, Revision C.01,
 Gaussian 16:  ES64L-G16RevC.01  3-Jul-2019

 ---------------------------------------------------------------
 #n M062X/6-311++G(d,p) TD(NStates=1) EmpiricalDispersion=GD3 SP
 ---------------------------------------------------------------

 -----
 SP_14
 -----
 Symbolic Z-matrix:
 Charge =  1 Multiplicity = 1

                         Standard orientation:
 ---------------------------------------------------------------------
 Center     Atomic      Atomic             Coordinates (Angstroms)
 Number     Number       Type             X           Y           Z
 ---------------------------------------------------------------------
      1          6           0       -2.363126   -1.542535    0.000000
      2          6           0       -2.310880   -2.933631    0.000000
      3          6           0       -1.075843   -3.586595    0.000000
      4          6           0        0.081277   -2.866737    0.000000
      5          6           0        2.376217    1.492433    0.000000
      6          6           0        2.347695    2.937572    0.000000
      7          6           0        1.149020    3.611158    0.000000
      8          6           0       -0.019269    2.857425    0.000000
      9          6           0       -1.276987    0.694073    0.000000
     10          6           0        1.243626   -0.705273    0.000000
     11          6           0       -1.208427   -0.802245    0.000000
     12          6           0        0.054373   -1.447861    0.000000
     13          6           0        0.000000    1.413934    0.000000
     14          6           0        1.221682    0.734511    0.000000
     15          1           0       -3.320438   -1.036091    0.000000
     16          1           0       -3.229993   -3.501468    0.000000
     17          1           0       -1.035978   -4.666265    0.000000
     18          1           0        1.038629   -3.371627    0.000000
     19          1           0        2.197527   -1.213998    0.000000
     20          1           0        3.338054    0.995110    0.000000
     21          1           0        3.285480    3.476608    0.000000
     22          1           0        1.117310    4.689933    0.000000
     23          1           0       -0.981244    3.355966    0.000000
     24          1           0       -1.862747    1.067227    0.859585
     25          1           0       -1.862747    1.067227   -0.859585
 ---------------------------------------------------------------------

 SCF Done:  E(RM062X) =  -539.753601793     A.U. after   15 cycles

 Excitation energies and oscillator strengths:

 Excited State   1:      Singlet-A'     2.6679 eV  464.73 nm  f=0.0206  <S**2>=0.000
      47 -> 48         0.70340
 This state for optimization and/or second-order correction.
 Total Energy, E(TD-HF/TD-DFT) =  -539.655559159
 Copying the excited state density for this state as the 1-particle RhoCI density.

 The electronic state is 1-A'.
 Alpha  occ. eigenvalues --  -10.77601 -10.73655 -10.72818 -10.72796 -10.72011
 Alpha  occ. eigenvalues --  -10.71931 -10.71674 -10.70996 -10.70986 -10.70141
 Alpha  occ. eigenvalues --  -10.70132 -10.69810 -10.69791 -10.69442  -1.16537
 Alpha  occ. eigenvalues --   -1.12488  -1.06917  -1.05837  -1.01315  -1.00432
 Alpha  occ. eigenvalues --   -0.95576  -0.91025  -0.86452  -0.85883  -0.83806
 Alpha  occ. eigenvalues --   -0.78323  -0.76146  -0.74356  -0.69720  -0.69290
 Alpha  occ. eigenvalues --   -0.68376  -0.68098  -0.68087  -0.65168  -0.64308
 Alpha  occ. eigenvalues --   -0.62749  -0.61652  -0.60425  -0.59284  -0.59164
 Alpha  occ. eigenvalues --   -0.56902  -0.55386  -0.54478  -0.52429  -0.47271
 Alpha  occ. eigenvalues --   -0.46126  -0.43831
 Alpha virt. eigenvalues --   -0.26102  -0.14711  -0.14047  -0.12755  -0.11188
 Alpha virt. eigenvalues --   -0.10091  -0.09253  -0.07964  -0.07926  -0.07484
 Alpha virt. eigenvalues --   -0.07209  -0.07136  -0.05648  -0.05575  -0.05346

 Mulliken charges:
               1
     1  C    0.069389
     2  C   -0.408993
     3  C   -0.434660
     4  C    0.021790
     5  C    0.006012
     6  C   -0.444182
     7  C   -0.405045
     8  C    0.118510
     9  C   -0.336849
    10  C    0.088835
    11  C   -0.645537
    12  C    0.721703
    13  C   -0.618808
    14  C    0.648336
    15  H    0.238526
    16  H    0.260752
    17  H    0.250789
    18  H    0.225388
    19  H    0.189700
    20  H    0.218582
    21  H    0.246735
    22  H    0.252004
    23  H    0.235952
    24  H    0.250536
    25  H    0.250536
 Sum of Mulliken charges =   1.00000

 Dipole moment (field-independent basis, Debye):
    X=             -0.2806    Y=             -0.8897    Z=             -0.0000  Tot=              0.9329
 Quadrupole moment (field-independent basis, Debye-Ang):
   XX=            -51.0597   YY=            -36.2471   ZZ=            -84.1309
   XY=             10.2332   XZ=              0.0000   YZ=             -0.0000

 Normal termination of Gaussian 16 at Thu Jul 28 15:03:12 2022.
