 Gaussian 16, Revision C.01,
 Gaussian 16:  ES64L-G16RevC.01  3-Jul-2019

 ---------------------------------------------------------------
 #n M062X/6-311++G(d,p) TD(NStates=1) EmpiricalDispersion=GD3 SP
 ---------------------------------------------------------------

 ------
 SP_-10
 ------
 Symbolic Z-matrix:
 Charge =  1 Multiplicity = 1

                         Standard orientation:
 ---------------------------------------------------------------------
 Center     Atomic      Atomic             Coordinates (Angstroms)
 Number     Number       Type             X           Y           Z
 ---------------------------------------------------------------------
      1          6           0        0.017928    2.851907    0.000000
      2          6           0       -1.153939    3.601665    0.000000
      3          6           0       -2.356118    2.927940    0.000000
      4          6           0       -2.385110    1.494499    0.000000
      5          6           0       -0.077962   -2.858192    0.000000
      6          6           0        1.088532   -3.585028    0.000000
      7          6           0        2.321459   -2.934887    0.000000
      8          6           0        2.368410   -1.544518    0.000000
      9          6           0        1.277395    0.693273    0.000000
     10          6           0       -1.248084   -0.696815    0.000000
     11          6           0        0.000000    1.419282    0.000000
     12          6           0       -1.224890    0.735757    0.000000
     13          6           0        1.204003   -0.799222    0.000000
     14          6           0       -0.053590   -1.444477    0.000000
     15          1           0        0.977077    3.355776    0.000000
     16          1           0       -1.123502    4.680675    0.000000
     17          1           0       -3.291283    3.471025    0.000000
     18          1           0       -3.344122    0.991848    0.000000
     19          1           0       -2.200464   -1.208387    0.000000
     20          1           0       -1.032478   -3.368404    0.000000
     21          1           0        1.043846   -4.664575    0.000000
     22          1           0        3.241074   -3.501529    0.000000
     23          1           0        3.322884   -1.032752    0.000000
     24          1           0        1.869380    1.054611    0.859585
     25          1           0        1.869380    1.054611   -0.859585
 ---------------------------------------------------------------------

 SCF Done:  E(RM062X) =  -539.756839521     A.U. after   15 cycles

 Excitation energies and oscillator strengths:

 Excited State   1:      Singlet-A'     2.7351 eV  453.30 nm  f=0.0234  <S**2>=0.000
      47 -> 48         0.70355
 This state for optimization and/or second-order correction.
 Total Energy, E(TD-HF/TD-DFT) =  -539.656324988
 Copying the excited state density for this state as the 1-particle RhoCI density.

 The electronic state is 1-A'.
 Alpha  occ. eigenvalues --  -10.77637 -10.73511 -10.72969 -10.72688 -10.72154
 Alpha  occ. eigenvalues --  -10.71619 -10.71562 -10.71136 -10.70989 -10.70418
 Alpha  occ. eigenvalues --  -10.70068 -10.69876 -10.69723 -10.69521  -1.16489
 Alpha  occ. eigenvalues --   -1.12479  -1.06928  -1.05781  -1.01317  -1.00320
 Alpha  occ. eigenvalues --   -0.95671  -0.91039  -0.86437  -0.85893  -0.83812
 Alpha  occ. eigenvalues --   -0.78361  -0.76088  -0.74385  -0.69628  -0.69273
 Alpha  occ. eigenvalues --   -0.68445  -0.68149  -0.68094  -0.64962  -0.64311
 Alpha  occ. eigenvalues --   -0.62887  -0.61756  -0.60266  -0.59430  -0.59119
 Alpha  occ. eigenvalues --   -0.56908  -0.55318  -0.54644  -0.52432  -0.46972
 Alpha  occ. eigenvalues --   -0.46106  -0.44127
 Alpha virt. eigenvalues --   -0.26094  -0.14696  -0.14069  -0.12765  -0.11183
 Alpha virt. eigenvalues --   -0.10089  -0.09241  -0.07974  -0.07949  -0.07480
 Alpha virt. eigenvalues --   -0.07206  -0.07141  -0.05645  -0.05578  -0.05339

 Mulliken charges:
               1
     1  C    0.112006
     2  C   -0.403931
     3  C   -0.442405
     4  C    0.013295
     5  C    0.015321
     6  C   -0.436751
     7  C   -0.410086
     8  C    0.075007
     9  C   -0.335161
    10  C    0.091002
    11  C   -0.625688
    12  C    0.655098
    13  C   -0.643953
    14  C    0.716823
    15  H    0.236503
    16  H    0.253334
    17  H    0.247622
    18  H    0.219435
    19  H    0.190058
    20  H    0.224509
    21  H    0.250005
    22  H    0.259347
    23  H    0.237982
    24  H    0.250314
    25  H    0.250314
 Sum of Mulliken charges =   1.00000

 Dipole moment (field-independent basis, Debye):
    X=              0.1310    Y=             -0.6257    Z=              0.0000  Tot=              0.6393
 Quadrupole moment (field-independent basis, Debye-Ang):
   XX=            -50.9560   YY=            -36.3921   ZZ=            -84.1366
   XY=            -10.2836   XZ=              0.0000   YZ=              0.0000

 Normal termination of Gaussian 16 at Thu Jul 28 13:28:26 2022.
