 Gaussian 16, Revision C.01,
 Gaussian 16:  ES64L-G16RevC.01  3-Jul-2019

 ---------------------------------------------------------------
 #n M062X/6-311++G(d,p) TD(NStates=1) EmpiricalDispersion=GD3 SP
 ---------------------------------------------------------------

 -----
 SP_14
 -----
 Symbolic Z-matrix:
 Charge =  1 Multiplicity = 1

                         Standard orientation:
 ---------------------------------------------------------------------
 Center     Atomic      Atomic             Coordinates (Angstroms)
 Number     Number       Type             X           Y           Z
 ---------------------------------------------------------------------
      1          6           0       -2.345404   -1.558003    0.000000
      2          6           0       -2.287310   -2.957768    0.000000
      3          6           0       -1.045002   -3.596820    0.000000
      4          6           0        0.105692   -2.863060    0.000000
      5          6           0        2.365797    1.514248    0.000000
      6          6           0        2.321450    2.956975    0.000000
      7          6           0        1.115317    3.616973    0.000000
      8          6           0       -0.042424    2.863490    0.000000
      9          6           0       -1.285944    0.677251    0.000000
     10          6           0        1.244130   -0.705164    0.000000
     11          6           0       -1.209835   -0.803624    0.000000
     12          6           0        0.083581   -1.447281    0.000000
     13          6           0        0.000000    1.412185    0.000000
     14          6           0        1.205779    0.758758    0.000000
     15          1           0       -3.322338   -1.087442    0.000000
     16          1           0       -3.193653   -3.546816    0.000000
     17          1           0       -1.013395   -4.677578    0.000000
     18          1           0        1.080433   -3.336324    0.000000
     19          1           0        2.214006   -1.183341    0.000000
     20          1           0        3.343537    1.049331    0.000000
     21          1           0        3.263417    3.488841    0.000000
     22          1           0        1.058909    4.694242    0.000000
     23          1           0       -1.022531    3.325366    0.000000
     24          1           0       -1.881674    1.032381    0.859585
     25          1           0       -1.881674    1.032381   -0.859585
 ---------------------------------------------------------------------

 SCF Done:  E(RM062X) =  -539.750836085     A.U. after   15 cycles

 Excitation energies and oscillator strengths:

 Excited State   1:      Singlet-A'     2.6392 eV  469.78 nm  f=0.0173  <S**2>=0.000
      47 -> 48         0.70338
 This state for optimization and/or second-order correction.
 Total Energy, E(TD-HF/TD-DFT) =  -539.653847537
 Copying the excited state density for this state as the 1-particle RhoCI density.

 The electronic state is 1-A'.
 Alpha  occ. eigenvalues --  -10.77467 -10.73997 -10.72926 -10.72521 -10.72377
 Alpha  occ. eigenvalues --  -10.72150 -10.71761 -10.70972 -10.70533 -10.70394
 Alpha  occ. eigenvalues --  -10.70137 -10.69639 -10.69532 -10.69124  -1.16576
 Alpha  occ. eigenvalues --   -1.12459  -1.06990  -1.05960  -1.01217  -1.00364
 Alpha  occ. eigenvalues --   -0.95599  -0.91092  -0.86399  -0.85862  -0.83760
 Alpha  occ. eigenvalues --   -0.78325  -0.76177  -0.74362  -0.70127  -0.69235
 Alpha  occ. eigenvalues --   -0.68226  -0.68093  -0.67869  -0.65411  -0.64125
 Alpha  occ. eigenvalues --   -0.62621  -0.61621  -0.60508  -0.59445  -0.59220
 Alpha  occ. eigenvalues --   -0.56721  -0.55493  -0.54120  -0.52479  -0.47460
 Alpha  occ. eigenvalues --   -0.46134  -0.43646
 Alpha virt. eigenvalues --   -0.26141  -0.14646  -0.14036  -0.12732  -0.11201
 Alpha virt. eigenvalues --   -0.10100  -0.09284  -0.07952  -0.07882  -0.07486
 Alpha virt. eigenvalues --   -0.07217  -0.07118  -0.05646  -0.05570  -0.05366

 Mulliken charges:
               1
     1  C    0.080281
     2  C   -0.383521
     3  C   -0.427038
     4  C    0.075391
     5  C   -0.068832
     6  C   -0.453811
     7  C   -0.423716
     8  C    0.102255
     9  C   -0.357093
    10  C    0.076986
    11  C   -0.646309
    12  C    0.672179
    13  C   -0.604555
    14  C    0.736312
    15  H    0.241882
    16  H    0.262469
    17  H    0.254701
    18  H    0.224511
    19  H    0.189519
    20  H    0.220618
    21  H    0.243299
    22  H    0.250290
    23  H    0.234391
    24  H    0.249895
    25  H    0.249895
 Sum of Mulliken charges =   1.00000

 Dipole moment (field-independent basis, Debye):
    X=             -0.5555    Y=             -1.4113    Z=             -0.0000  Tot=              1.5167
 Quadrupole moment (field-independent basis, Debye-Ang):
   XX=            -50.8745   YY=            -36.3054   ZZ=            -84.1175
   XY=             10.4162   XZ=              0.0000   YZ=             -0.0000

 Normal termination of Gaussian 16 at Thu Jul 28 14:58:48 2022.
