 Gaussian 16, Revision C.01,
 Gaussian 16:  ES64L-G16RevC.01  3-Jul-2019

 ---------------------------------------------------------------
 #n M062X/6-311++G(d,p) TD(NStates=1) EmpiricalDispersion=GD3 SP
 ---------------------------------------------------------------

 -----
 SP_10
 -----
 Symbolic Z-matrix:
 Charge =  1 Multiplicity = 1

                         Standard orientation:
 ---------------------------------------------------------------------
 Center     Atomic      Atomic             Coordinates (Angstroms)
 Number     Number       Type             X           Y           Z
 ---------------------------------------------------------------------
      1          6           0       -2.363998   -1.548390    0.000000
      2          6           0       -2.315621   -2.940936    0.000000
      3          6           0       -1.080874   -3.587625    0.000000
      4          6           0        0.084021   -2.857300    0.000000
      5          6           0        2.382535    1.499951    0.000000
      6          6           0        2.349625    2.932806    0.000000
      7          6           0        1.145574    3.603147    0.000000
      8          6           0       -0.023661    2.853443    0.000000
      9          6           0       -1.279646    0.689092    0.000000
     10          6           0        1.248170   -0.696785    0.000000
     11          6           0       -1.204361   -0.799533    0.000000
     12          6           0        0.060869   -1.444379    0.000000
     13          6           0        0.000000    1.418830    0.000000
     14          6           0        1.220957    0.741837    0.000000
     15          1           0       -3.323448   -1.045543    0.000000
     16          1           0       -3.232085   -3.512891    0.000000
     17          1           0       -1.038267   -4.667405    0.000000
     18          1           0        1.042946   -3.359653    0.000000
     19          1           0        2.204597   -1.200761    0.000000
     20          1           0        3.345586    1.005358    0.000000
     21          1           0        3.285808    3.474068    0.000000
     22          1           0        1.108971    4.681823    0.000000
     23          1           0       -0.987414    3.348195    0.000000
     24          1           0       -1.874123    1.045932    0.859585
     25          1           0       -1.874123    1.045932   -0.859585
 ---------------------------------------------------------------------

 SCF Done:  E(RM062X) =  -539.756746084     A.U. after   15 cycles

 Excitation energies and oscillator strengths:

 Excited State   1:      Singlet-A'     2.7296 eV  454.23 nm  f=0.0225  <S**2>=0.000
      47 -> 48         0.70358
 This state for optimization and/or second-order correction.
 Total Energy, E(TD-HF/TD-DFT) =  -539.656436177
 Copying the excited state density for this state as the 1-particle RhoCI density.

 The electronic state is 1-A'.
 Alpha  occ. eigenvalues --  -10.77619 -10.73604 -10.72862 -10.72729 -10.72097
 Alpha  occ. eigenvalues --  -10.71765 -10.71681 -10.71018 -10.70984 -10.70285
 Alpha  occ. eigenvalues --  -10.70135 -10.69810 -10.69808 -10.69439  -1.16494
 Alpha  occ. eigenvalues --   -1.12473  -1.06937  -1.05796  -1.01303  -1.00309
 Alpha  occ. eigenvalues --   -0.95673  -0.91046  -0.86431  -0.85891  -0.83807
 Alpha  occ. eigenvalues --   -0.78360  -0.76094  -0.74385  -0.69706  -0.69252
 Alpha  occ. eigenvalues --   -0.68413  -0.68118  -0.68094  -0.65021  -0.64272
 Alpha  occ. eigenvalues --   -0.62857  -0.61755  -0.60285  -0.59411  -0.59165
 Alpha  occ. eigenvalues --   -0.56879  -0.55354  -0.54579  -0.52438  -0.47014
 Alpha  occ. eigenvalues --   -0.46106  -0.44088
 Alpha virt. eigenvalues --   -0.26099  -0.14681  -0.14073  -0.12763  -0.11185
 Alpha virt. eigenvalues --   -0.10090  -0.09245  -0.07971  -0.07943  -0.07480
 Alpha virt. eigenvalues --   -0.07207  -0.07139  -0.05645  -0.05577  -0.05341

 Mulliken charges:
               1
     1  C    0.077683
     2  C   -0.404001
     3  C   -0.435170
     4  C    0.031520
     5  C   -0.003469
     6  C   -0.444819
     7  C   -0.409518
     8  C    0.108417
     9  C   -0.336542
    10  C    0.090637
    11  C   -0.643361
    12  C    0.701944
    13  C   -0.624295
    14  C    0.671333
    15  H    0.238732
    16  H    0.259786
    17  H    0.250971
    18  H    0.224274
    19  H    0.190002
    20  H    0.219858
    21  H    0.246743
    22  H    0.252898
    23  H    0.235938
    24  H    0.250219
    25  H    0.250219
 Sum of Mulliken charges =   1.00000

 Dipole moment (field-independent basis, Debye):
    X=             -0.2016    Y=             -0.7576    Z=             -0.0000  Tot=              0.7839
 Quadrupole moment (field-independent basis, Debye-Ang):
   XX=            -50.9089   YY=            -36.4177   ZZ=            -84.1350
   XY=             10.3222   XZ=              0.0000   YZ=             -0.0000

 Normal termination of Gaussian 16 at Thu Jul 28 14:46:31 2022.
