 Gaussian 16, Revision C.01,
 Gaussian 16:  ES64L-G16RevC.01  3-Jul-2019

 ---------------------------------------------------------------
 #n M062X/6-311++G(d,p) TD(NStates=1) EmpiricalDispersion=GD3 SP
 ---------------------------------------------------------------

 -----
 SP_10
 -----
 Symbolic Z-matrix:
 Charge =  1 Multiplicity = 1

                         Standard orientation:
 ---------------------------------------------------------------------
 Center     Atomic      Atomic             Coordinates (Angstroms)
 Number     Number       Type             X           Y           Z
 ---------------------------------------------------------------------
      1          6           0       -2.377210   -1.536747    0.000000
      2          6           0       -2.333077   -2.922765    0.000000
      3          6           0       -1.103814   -3.579790    0.000000
      4          6           0        0.065844   -2.859936    0.000000
      5          6           0        2.390214    1.483592    0.000000
      6          6           0        2.369062    2.918176    0.000000
      7          6           0        1.170651    3.598648    0.000000
      8          6           0       -0.006497    2.848801    0.000000
      9          6           0       -1.272861    0.701611    0.000000
     10          6           0        1.247933   -0.696880    0.000000
     11          6           0       -1.203300   -0.798624    0.000000
     12          6           0        0.039038   -1.444598    0.000000
     13          6           0        0.000000    1.420209    0.000000
     14          6           0        1.232692    0.723561    0.000000
     15          1           0       -3.321632   -1.007207    0.000000
     16          1           0       -3.258932   -3.478750    0.000000
     17          1           0       -1.054961   -4.658914    0.000000
     18          1           0        1.011456   -3.385812    0.000000
     19          1           0        2.192134   -1.223591    0.000000
     20          1           0        3.341059    0.964878    0.000000
     21          1           0        3.302228    3.464932    0.000000
     22          1           0        1.152545    4.678259    0.000000
     23          1           0       -0.956332    3.370846    0.000000
     24          1           0       -1.859811    1.071911    0.859585
     25          1           0       -1.859811    1.071911   -0.859585
 ---------------------------------------------------------------------

 SCF Done:  E(RM062X) =  -539.756047377     A.U. after   15 cycles

 Excitation energies and oscillator strengths:

 Excited State   1:      Singlet-A'     2.7447 eV  451.73 nm  f=0.0252  <S**2>=0.000
      47 -> 48         0.70338
 This state for optimization and/or second-order correction.
 Total Energy, E(TD-HF/TD-DFT) =  -539.655182291
 Copying the excited state density for this state as the 1-particle RhoCI density.

 The electronic state is 1-A'.
 Alpha  occ. eigenvalues --  -10.77662 -10.73320 -10.73178 -10.72600 -10.72263
 Alpha  occ. eigenvalues --  -10.71375 -10.71329 -10.71327 -10.70997 -10.70689
 Alpha  occ. eigenvalues --  -10.70010 -10.69933 -10.69688 -10.69552  -1.16485
 Alpha  occ. eigenvalues --   -1.12493  -1.06922  -1.05772  -1.01334  -1.00339
 Alpha  occ. eigenvalues --   -0.95671  -0.91038  -0.86442  -0.85890  -0.83812
 Alpha  occ. eigenvalues --   -0.78366  -0.76077  -0.74382  -0.69570  -0.69262
 Alpha  occ. eigenvalues --   -0.68499  -0.68179  -0.68100  -0.64857  -0.64368
 Alpha  occ. eigenvalues --   -0.62936  -0.61750  -0.60233  -0.59471  -0.59067
 Alpha  occ. eigenvalues --   -0.56940  -0.55234  -0.54739  -0.52430  -0.46890
 Alpha  occ. eigenvalues --   -0.46112  -0.44198
 Alpha virt. eigenvalues --   -0.26089  -0.14730  -0.14050  -0.12760  -0.11180
 Alpha virt. eigenvalues --   -0.10088  -0.09234  -0.07980  -0.07955  -0.07478
 Alpha virt. eigenvalues --   -0.07205  -0.07142  -0.05646  -0.05581  -0.05337

 Mulliken charges:
               1
     1  C    0.069852
     2  C   -0.421769
     3  C   -0.439159
     4  C   -0.021420
     5  C    0.043765
     6  C   -0.437276
     7  C   -0.392191
     8  C    0.119380
     9  C   -0.337498
    10  C    0.088184
    11  C   -0.645214
    12  C    0.753284
    13  C   -0.628212
    14  C    0.628965
    15  H    0.236637
    16  H    0.258461
    17  H    0.248069
    18  H    0.224976
    19  H    0.190213
    20  H    0.218635
    21  H    0.249378
    22  H    0.254204
    23  H    0.237803
    24  H    0.250467
    25  H    0.250467
 Sum of Mulliken charges =   1.00000

 Dipole moment (field-independent basis, Debye):
    X=              0.0123    Y=             -0.3620    Z=             -0.0000  Tot=              0.3622
 Quadrupole moment (field-independent basis, Debye-Ang):
   XX=            -51.0532   YY=            -36.3339   ZZ=            -84.1379
   XY=             10.2128   XZ=              0.0000   YZ=             -0.0000

 Normal termination of Gaussian 16 at Thu Jul 28 14:49:49 2022.
