 Gaussian 16, Revision C.01,
 Gaussian 16:  ES64L-G16RevC.01  3-Jul-2019

 ---------------------------------------------------------------
 #n M062X/6-311++G(d,p) TD(NStates=1) EmpiricalDispersion=GD3 SP
 ---------------------------------------------------------------

 -----
 SP_12
 -----
 Symbolic Z-matrix:
 Charge =  1 Multiplicity = 1

                         Standard orientation:
 ---------------------------------------------------------------------
 Center     Atomic      Atomic             Coordinates (Angstroms)
 Number     Number       Type             X           Y           Z
 ---------------------------------------------------------------------
      1          6           0       -2.352500   -1.555127    0.000000
      2          6           0       -2.298562   -2.952378    0.000000
      3          6           0       -1.059132   -3.593533    0.000000
      4          6           0        0.097857   -2.859739    0.000000
      5          6           0        2.372885    1.509824    0.000000
      6          6           0        2.332322    2.947322    0.000000
      7          6           0        1.126297    3.610802    0.000000
      8          6           0       -0.035882    2.859236    0.000000
      9          6           0       -1.283916    0.681088    0.000000
     10          6           0        1.246174   -0.700959    0.000000
     11          6           0       -1.207284   -0.801718    0.000000
     12          6           0        0.075851   -1.445785    0.000000
     13          6           0       -0.000000    1.415278    0.000000
     14          6           0        1.211406    0.753337    0.000000
     15          1           0       -3.323189   -1.072870    0.000000
     16          1           0       -3.208398   -3.535533    0.000000
     17          1           0       -1.023072   -4.673907    0.000000
     18          1           0        1.066904   -3.343630    0.000000
     19          1           0        2.211354   -1.188248    0.000000
     20          1           0        3.345308    1.034086    0.000000
     21          1           0        3.271899    3.482963    0.000000
     22          1           0        1.076715    4.688612    0.000000
     23          1           0       -1.010125    3.333004    0.000000
     24          1           0       -1.880248    1.034820    0.859585
     25          1           0       -1.880248    1.034820   -0.859585
 ---------------------------------------------------------------------

 SCF Done:  E(RM062X) =  -539.753941365     A.U. after   15 cycles

 Excitation energies and oscillator strengths:

 Excited State   1:      Singlet-A'     2.6830 eV  462.12 nm  f=0.0194  <S**2>=0.000
      47 -> 48         0.70347
 This state for optimization and/or second-order correction.
 Total Energy, E(TD-HF/TD-DFT) =  -539.655344694
 Copying the excited state density for this state as the 1-particle RhoCI density.

 The electronic state is 1-A'.
 Alpha  occ. eigenvalues --  -10.77539 -10.73850 -10.72851 -10.72567 -10.72215
 Alpha  occ. eigenvalues --  -10.71976 -10.71903 -10.70977 -10.70717 -10.70299
 Alpha  occ. eigenvalues --  -10.70017 -10.69887 -10.69640 -10.69239  -1.16535
 Alpha  occ. eigenvalues --   -1.12463  -1.06965  -1.05881  -1.01255  -1.00330
 Alpha  occ. eigenvalues --   -0.95640  -0.91072  -0.86413  -0.85877  -0.83783
 Alpha  occ. eigenvalues --   -0.78343  -0.76136  -0.74374  -0.69958  -0.69226
 Alpha  occ. eigenvalues --   -0.68304  -0.68093  -0.67983  -0.65245  -0.64179
 Alpha  occ. eigenvalues --   -0.62721  -0.61692  -0.60405  -0.59328  -0.59306
 Alpha  occ. eigenvalues --   -0.56788  -0.55445  -0.54323  -0.52460  -0.47250
 Alpha  occ. eigenvalues --   -0.46119  -0.43854
 Alpha virt. eigenvalues --   -0.26121  -0.14659  -0.14057  -0.12748  -0.11193
 Alpha virt. eigenvalues --   -0.10095  -0.09266  -0.07961  -0.07911  -0.07483
 Alpha virt. eigenvalues --   -0.07212  -0.07129  -0.05646  -0.05573  -0.05354

 Mulliken charges:
               1
     1  C    0.080389
     2  C   -0.390791
     3  C   -0.430338
     4  C    0.062103
     5  C   -0.044417
     6  C   -0.450443
     7  C   -0.419823
     8  C    0.103913
     9  C   -0.346759
    10  C    0.084315
    11  C   -0.644236
    12  C    0.680060
    13  C   -0.615212
    14  C    0.710647
    15  H    0.240676
    16  H    0.261350
    17  H    0.253315
    18  H    0.224270
    19  H    0.189748
    20  H    0.220408
    21  H    0.244570
    22  H    0.251367
    23  H    0.234831
    24  H    0.250028
    25  H    0.250028
 Sum of Mulliken charges =   1.00000

 Dipole moment (field-independent basis, Debye):
    X=             -0.4143    Y=             -1.1516    Z=             -0.0000  Tot=              1.2238
 Quadrupole moment (field-independent basis, Debye-Ang):
   XX=            -50.8688   YY=            -36.3800   ZZ=            -84.1261
   XY=             10.3855   XZ=              0.0000   YZ=             -0.0000

 Normal termination of Gaussian 16 at Thu Jul 28 14:52:01 2022.
