 Gaussian 16, Revision C.01,
 Gaussian 16:  ES64L-G16RevC.01  3-Jul-2019

 ---------------------------------------------------------------
 #n M062X/6-311++G(d,p) TD(NStates=1) EmpiricalDispersion=GD3 SP
 ---------------------------------------------------------------

 -----
 SP_-8
 -----
 Symbolic Z-matrix:
 Charge =  1 Multiplicity = 1

                         Standard orientation:
 ---------------------------------------------------------------------
 Center     Atomic      Atomic             Coordinates (Angstroms)
 Number     Number       Type             X           Y           Z
 ---------------------------------------------------------------------
      1          6           0        0.034446    2.853726    0.000000
      2          6           0       -1.131338    3.601316    0.000000
      3          6           0       -2.340857    2.937689    0.000000
      4          6           0       -2.381801    1.511885    0.000000
      5          6           0       -0.094441   -2.851215    0.000000
      6          6           0        1.071906   -3.592012    0.000000
      7          6           0        2.309202   -2.953642    0.000000
      8          6           0        2.357803   -1.557094    0.000000
      9          6           0        1.284313    0.680318    0.000000
     10          6           0       -1.250563   -0.692498    0.000000
     11          6           0        0.000000    1.420613    0.000000
     12          6           0       -1.214640    0.754585    0.000000
     13          6           0        1.202883   -0.798639    0.000000
     14          6           0       -0.075020   -1.442427    0.000000
     15          1           0        1.005913    3.332874    0.000000
     16          1           0       -1.083047    4.679387    0.000000
     17          1           0       -3.277789    3.477336    0.000000
     18          1           0       -3.351446    1.030769    0.000000
     19          1           0       -2.214252   -1.182676    0.000000
     20          1           0       -1.060697   -3.340478    0.000000
     21          1           0        1.031050   -4.672220    0.000000
     22          1           0        3.219574   -3.535593    0.000000
     23          1           0        3.325703   -1.069462    0.000000
     24          1           0        1.886817    1.022220    0.859585
     25          1           0        1.886817    1.022220   -0.859585
 ---------------------------------------------------------------------

 SCF Done:  E(RM062X) =  -539.756930041     A.U. after   15 cycles

 Excitation energies and oscillator strengths:

 Excited State   1:      Singlet-A'     2.7482 eV  451.14 nm  f=0.0226  <S**2>=0.000
      47 -> 48         0.70365
 This state for optimization and/or second-order correction.
 Total Energy, E(TD-HF/TD-DFT) =  -539.655933724
 Copying the excited state density for this state as the 1-particle RhoCI density.

 The electronic state is 1-A'.
 Alpha  occ. eigenvalues --  -10.77594 -10.73716 -10.72753 -10.72724 -10.72052
 Alpha  occ. eigenvalues --  -10.71901 -10.71862 -10.70975 -10.70860 -10.70236
 Alpha  occ. eigenvalues --  -10.70157 -10.69947 -10.69706 -10.69314  -1.16489
 Alpha  occ. eigenvalues --   -1.12462  -1.06963  -1.05816  -1.01274  -1.00244
 Alpha  occ. eigenvalues --   -0.95719  -0.91073  -0.86410  -0.85887  -0.83794
 Alpha  occ. eigenvalues --   -0.78375  -0.76081  -0.74396  -0.69840  -0.69199
 Alpha  occ. eigenvalues --   -0.68390  -0.68100  -0.68059  -0.65044  -0.64192
 Alpha  occ. eigenvalues --   -0.62859  -0.61787  -0.60249  -0.59450  -0.59246
 Alpha  occ. eigenvalues --   -0.56821  -0.55377  -0.54511  -0.52454  -0.46959
 Alpha  occ. eigenvalues --   -0.46097  -0.44147
 Alpha virt. eigenvalues --   -0.26108  -0.14660  -0.14076  -0.12758  -0.11187
 Alpha virt. eigenvalues --   -0.10091  -0.09250  -0.07972  -0.07937  -0.07479
 Alpha virt. eigenvalues --   -0.07208  -0.07136  -0.05644  -0.05577  -0.05345

 Mulliken charges:
               1
     1  C    0.098227
     2  C   -0.419467
     3  C   -0.448108
     4  C   -0.036601
     5  C    0.057186
     6  C   -0.432232
     7  C   -0.392151
     8  C    0.086420
     9  C   -0.342702
    10  C    0.087514
    11  C   -0.624132
    12  C    0.714086
    13  C   -0.642436
    14  C    0.674182
    15  H    0.235206
    16  H    0.252696
    17  H    0.245401
    18  H    0.221113
    19  H    0.190093
    20  H    0.223320
    21  H    0.252472
    22  H    0.259956
    23  H    0.240032
    24  H    0.249962
    25  H    0.249962
 Sum of Mulliken charges =   1.00000

 Dipole moment (field-independent basis, Debye):
    X=              0.2671    Y=             -0.8886    Z=             -0.0000  Tot=              0.9279
 Quadrupole moment (field-independent basis, Debye-Ang):
   XX=            -50.7672   YY=            -36.5406   ZZ=            -84.1330
   XY=            -10.4278   XZ=              0.0000   YZ=             -0.0000

 Normal termination of Gaussian 16 at Thu Jul 28 13:39:27 2022.
