 Gaussian 16, Revision C.01,
 Gaussian 16:  ES64L-G16RevC.01  3-Jul-2019

 ---------------------------------------------------------------
 #n M062X/6-311++G(d,p) TD(NStates=1) EmpiricalDispersion=GD3 SP
 ---------------------------------------------------------------

 ------
 SP_-12
 ------
 Symbolic Z-matrix:
 Charge =  1 Multiplicity = 1

                         Standard orientation:
 ---------------------------------------------------------------------
 Center     Atomic      Atomic             Coordinates (Angstroms)
 Number     Number       Type             X           Y           Z
 ---------------------------------------------------------------------
      1          6           0        0.012851    2.853120    0.000000
      2          6           0       -1.159873    3.604911    0.000000
      3          6           0       -2.358416    2.927877    0.000000
      4          6           0       -2.383228    1.488011    0.000000
      5          6           0       -0.073531   -2.863347    0.000000
      6          6           0        1.089857   -3.583211    0.000000
      7          6           0        2.322004   -2.928203    0.000000
      8          6           0        2.370176   -1.539640    0.000000
      9          6           0        1.274925    0.697853    0.000000
     10          6           0       -1.245757   -0.701075    0.000000
     11          6           0        0.000000    1.417065    0.000000
     12          6           0       -1.227202    0.729041    0.000000
     13          6           0        1.205869   -0.800415    0.000000
     14          6           0       -0.046691   -1.446246    0.000000
     15          1           0        0.968784    3.363434    0.000000
     16          1           0       -1.134971    4.684120    0.000000
     17          1           0       -3.293879    3.470758    0.000000
     18          1           0       -3.339593    0.979972    0.000000
     19          1           0       -2.194827   -1.218812    0.000000
     20          1           0       -1.025037   -3.378752    0.000000
     21          1           0        1.045506   -4.662590    0.000000
     22          1           0        3.244505   -3.490115    0.000000
     23          1           0        3.321070   -1.021624    0.000000
     24          1           0        1.861270    1.069581    0.859585
     25          1           0        1.861270    1.069581   -0.859585
 ---------------------------------------------------------------------

 SCF Done:  E(RM062X) =  -539.755179504     A.U. after   15 cycles

 Excitation energies and oscillator strengths:

 Excited State   1:      Singlet-A'     2.7084 eV  457.78 nm  f=0.0228  <S**2>=0.000
      47 -> 48         0.70342
 This state for optimization and/or second-order correction.
 Total Energy, E(TD-HF/TD-DFT) =  -539.655649176
 Copying the excited state density for this state as the 1-particle RhoCI density.

 The electronic state is 1-A'.
 Alpha  occ. eigenvalues --  -10.77639 -10.73491 -10.73000 -10.72702 -10.72140
 Alpha  occ. eigenvalues --  -10.71628 -10.71502 -10.71180 -10.70997 -10.70412
 Alpha  occ. eigenvalues --  -10.70033 -10.69910 -10.69671 -10.69564  -1.16507
 Alpha  occ. eigenvalues --   -1.12491  -1.06916  -1.05794  -1.01330  -1.00385
 Alpha  occ. eigenvalues --   -0.95625  -0.91028  -0.86449  -0.85889  -0.83812
 Alpha  occ. eigenvalues --   -0.78346  -0.76108  -0.74370  -0.69602  -0.69296
 Alpha  occ. eigenvalues --   -0.68449  -0.68152  -0.68093  -0.64999  -0.64348
 Alpha  occ. eigenvalues --   -0.62847  -0.61708  -0.60327  -0.59378  -0.59097
 Alpha  occ. eigenvalues --   -0.56933  -0.55312  -0.54626  -0.52427  -0.47069
 Alpha  occ. eigenvalues --   -0.46119  -0.44025
 Alpha virt. eigenvalues --   -0.26093  -0.14721  -0.14052  -0.12760  -0.11183
 Alpha virt. eigenvalues --   -0.10089  -0.09241  -0.07973  -0.07944  -0.07481
 Alpha virt. eigenvalues --   -0.07206  -0.07140  -0.05647  -0.05578  -0.05340

 Mulliken charges:
               1
     1  C    0.118987
     2  C   -0.398779
     3  C   -0.440701
     4  C    0.025514
     5  C    0.001228
     6  C   -0.436992
     7  C   -0.415539
     8  C    0.069647
     9  C   -0.335765
    10  C    0.089405
    11  C   -0.623956
    12  C    0.637262
    13  C   -0.645627
    14  C    0.736025
    15  H    0.236820
    16  H    0.253101
    17  H    0.248049
    18  H    0.218572
    19  H    0.189974
    20  H    0.225169
    21  H    0.249423
    22  H    0.259608
    23  H    0.237533
    24  H    0.250520
    25  H    0.250520
 Sum of Mulliken charges =   1.00000

 Dipole moment (field-independent basis, Debye):
    X=              0.1345    Y=             -0.6265    Z=              0.0000  Tot=              0.6407
 Quadrupole moment (field-independent basis, Debye-Ang):
   XX=            -51.0568   YY=            -36.2972   ZZ=            -84.1354
   XY=            -10.2187   XZ=              0.0000   YZ=              0.0000

 Normal termination of Gaussian 16 at Thu Jul 28 13:19:35 2022.
