 Gaussian 16, Revision C.01,
 Gaussian 16:  ES64L-G16RevC.01  3-Jul-2019

 ---------------------------------------------------------------
 #n M062X/6-311++G(d,p) TD(NStates=1) EmpiricalDispersion=GD3 SP
 ---------------------------------------------------------------

 -----
 SP_12
 -----
 Symbolic Z-matrix:
 Charge =  1 Multiplicity = 1

                         Standard orientation:
 ---------------------------------------------------------------------
 Center     Atomic      Atomic             Coordinates (Angstroms)
 Number     Number       Type             X           Y           Z
 ---------------------------------------------------------------------
      1          6           0       -2.356930   -1.551268    0.000000
      2          6           0       -2.304452   -2.946347    0.000000
      3          6           0       -1.066830   -3.590975    0.000000
      4          6           0        0.091775   -2.860661    0.000000
      5          6           0        2.375492    1.504372    0.000000
      6          6           0        2.338866    2.942478    0.000000
      7          6           0        1.134700    3.609356    0.000000
      8          6           0       -0.030108    2.857724    0.000000
      9          6           0       -1.281685    0.685292    0.000000
     10          6           0        1.246059   -0.700986    0.000000
     11          6           0       -1.206925   -0.801381    0.000000
     12          6           0        0.068558   -1.445938    0.000000
     13          6           0        0.000000    1.415714    0.000000
     14          6           0        1.215388    0.747281    0.000000
     15          1           0       -3.322723   -1.060040    0.000000
     16          1           0       -3.217484   -3.524206    0.000000
     17          1           0       -1.028702   -4.671078    0.000000
     18          1           0        1.056481   -3.352458    0.000000
     19          1           0        2.207255   -1.195912    0.000000
     20          1           0        3.343947    1.020533    0.000000
     21          1           0        3.277397    3.479916    0.000000
     22          1           0        1.091288    4.687549    0.000000
     23          1           0       -0.999826    3.340658    0.000000
     24          1           0       -1.875546    1.043538    0.859585
     25          1           0       -1.875546    1.043538   -0.859585
 ---------------------------------------------------------------------

 SCF Done:  E(RM062X) =  -539.754743430     A.U. after   15 cycles

 Excitation energies and oscillator strengths:

 Excited State   1:      Singlet-A'     2.6900 eV  460.91 nm  f=0.0202  <S**2>=0.000
      47 -> 48         0.70348
 This state for optimization and/or second-order correction.
 Total Energy, E(TD-HF/TD-DFT) =  -539.655889293
 Copying the excited state density for this state as the 1-particle RhoCI density.

 The electronic state is 1-A'.
 Alpha  occ. eigenvalues --  -10.77571 -10.73763 -10.72817 -10.72677 -10.72068
 Alpha  occ. eigenvalues --  -10.71964 -10.71856 -10.70982 -10.70830 -10.70233
 Alpha  occ. eigenvalues --  -10.70016 -10.69930 -10.69708 -10.69319  -1.16525
 Alpha  occ. eigenvalues --   -1.12469  -1.06948  -1.05850  -1.01278  -1.00345
 Alpha  occ. eigenvalues --   -0.95634  -0.91054  -0.86426  -0.85882  -0.83795
 Alpha  occ. eigenvalues --   -0.78342  -0.76129  -0.74373  -0.69856  -0.69241
 Alpha  occ. eigenvalues --   -0.68338  -0.68091  -0.68042  -0.65185  -0.64225
 Alpha  occ. eigenvalues --   -0.62756  -0.61700  -0.60384  -0.59322  -0.59257
 Alpha  occ. eigenvalues --   -0.56832  -0.55420  -0.54413  -0.52447  -0.47206
 Alpha  occ. eigenvalues --   -0.46117  -0.43899
 Alpha virt. eigenvalues --   -0.26112  -0.14671  -0.14062  -0.12755  -0.11190
 Alpha virt. eigenvalues --   -0.10093  -0.09258  -0.07963  -0.07922  -0.07483
 Alpha virt. eigenvalues --   -0.07210  -0.07133  -0.05646  -0.05574  -0.05349

 Mulliken charges:
               1
     1  C    0.077539
     2  C   -0.397161
     3  C   -0.432380
     4  C    0.049046
     5  C   -0.025206
     6  C   -0.448186
     7  C   -0.415136
     8  C    0.107813
     9  C   -0.341319
    10  C    0.087594
    11  C   -0.643905
    12  C    0.691652
    13  C   -0.618384
    14  C    0.687931
    15  H    0.239831
    16  H    0.260920
    17  H    0.252346
    18  H    0.224500
    19  H    0.189780
    20  H    0.219920
    21  H    0.245439
    22  H    0.251798
    23  H    0.235222
    24  H    0.250173
    25  H    0.250173
 Sum of Mulliken charges =   1.00000

 Dipole moment (field-independent basis, Debye):
    X=             -0.3456    Y=             -1.0208    Z=             -0.0000  Tot=              1.0777
 Quadrupole moment (field-independent basis, Debye-Ang):
   XX=            -50.9141   YY=            -36.3628   ZZ=            -84.1294
   XY=             10.3408   XZ=              0.0000   YZ=             -0.0000

 Normal termination of Gaussian 16 at Thu Jul 28 14:53:08 2022.
