 Gaussian 16, Revision C.01,
 Gaussian 16:  ES64L-G16RevC.01  3-Jul-2019

 ---------------------------------------------------------------
 #n M062X/6-311++G(d,p) TD(NStates=1) EmpiricalDispersion=GD3 SP
 ---------------------------------------------------------------

 ------
 SP_-14
 ------
 Symbolic Z-matrix:
 Charge =  1 Multiplicity = 1

                         Standard orientation:
 ---------------------------------------------------------------------
 Center     Atomic      Atomic             Coordinates (Angstroms)
 Number     Number       Type             X           Y           Z
 ---------------------------------------------------------------------
      1          6           0        0.030825    2.860481    0.000000
      2          6           0       -1.132180    3.614102    0.000000
      3          6           0       -2.334601    2.947296    0.000000
      4          6           0       -2.371037    1.503342    0.000000
      5          6           0       -0.093484   -2.864925    0.000000
      6          6           0        1.060445   -3.591738    0.000000
      7          6           0        2.299134   -2.945716    0.000000
      8          6           0        2.354280   -1.550287    0.000000
      9          6           0        1.281488    0.685679    0.000000
     10          6           0       -1.243864   -0.705216    0.000000
     11          6           0        0.000000    1.413046    0.000000
     12          6           0       -1.213775    0.746659    0.000000
     13          6           0        1.209125   -0.802920    0.000000
     14          6           0       -0.068974   -1.447622    0.000000
     15          1           0        1.001937    3.340728    0.000000
     16          1           0       -1.088122    4.692168    0.000000
     17          1           0       -3.274453    3.482730    0.000000
     18          1           0       -3.340886    1.022189    0.000000
     19          1           0       -2.205810   -1.198700    0.000000
     20          1           0       -1.059591   -3.354039    0.000000
     21          1           0        1.024714   -4.671922    0.000000
     22          1           0        3.211902   -3.524179    0.000000
     23          1           0        3.321473   -1.061742    0.000000
     24          1           0        1.872266    1.049841    0.859585
     25          1           0        1.872266    1.049841   -0.859585
 ---------------------------------------------------------------------

 SCF Done:  E(RM062X) =  -539.752879143     A.U. after   15 cycles

 Excitation energies and oscillator strengths:

 Excited State   1:      Singlet-A'     2.6543 eV  467.11 nm  f=0.0189  <S**2>=0.000
      47 -> 48         0.70342
 This state for optimization and/or second-order correction.
 Total Energy, E(TD-HF/TD-DFT) =  -539.655335967
 Copying the excited state density for this state as the 1-particle RhoCI density.

 The electronic state is 1-A'.
 Alpha  occ. eigenvalues --  -10.77542 -10.73830 -10.72866 -10.72600 -10.72226
 Alpha  occ. eigenvalues --  -10.71911 -10.71889 -10.70984 -10.70756 -10.70264
 Alpha  occ. eigenvalues --  -10.69964 -10.69884 -10.69674 -10.69281  -1.16553
 Alpha  occ. eigenvalues --   -1.12472  -1.06946  -1.05888  -1.01270  -1.00401
 Alpha  occ. eigenvalues --   -0.95584  -0.91050  -0.86430  -0.85876  -0.83789
 Alpha  occ. eigenvalues --   -0.78322  -0.76161  -0.74359  -0.69916  -0.69254
 Alpha  occ. eigenvalues --   -0.68293  -0.68087  -0.68005  -0.65294  -0.64220
 Alpha  occ. eigenvalues --   -0.62687  -0.61641  -0.60464  -0.59295  -0.59249
 Alpha  occ. eigenvalues --   -0.56818  -0.55451  -0.54316  -0.52448  -0.47367
 Alpha  occ. eigenvalues --   -0.46127  -0.43741
 Alpha virt. eigenvalues --   -0.26119  -0.14675  -0.14049  -0.12749  -0.11194
 Alpha virt. eigenvalues --   -0.10095  -0.09267  -0.07957  -0.07907  -0.07486
 Alpha virt. eigenvalues --   -0.07212  -0.07129  -0.05647  -0.05572  -0.05354

 Mulliken charges:
               1
     1  C    0.110802
     2  C   -0.415428
     3  C   -0.449266
     4  C   -0.029031
     5  C    0.051599
     6  C   -0.431387
     7  C   -0.396528
     8  C    0.074649
     9  C   -0.343196
    10  C    0.085911
    11  C   -0.613804
    12  C    0.685768
    13  C   -0.644637
    14  C    0.694291
    15  H    0.235014
    16  H    0.251140
    17  H    0.245013
    18  H    0.219555
    19  H    0.189570
    20  H    0.224960
    21  H    0.252752
    22  H    0.261619
    23  H    0.240135
    24  H    0.250249
    25  H    0.250249
 Sum of Mulliken charges =   1.00000

 Dipole moment (field-independent basis, Debye):
    X=              0.4198    Y=             -1.1515    Z=              0.0000  Tot=              1.2256
 Quadrupole moment (field-independent basis, Debye-Ang):
   XX=            -50.9646   YY=            -36.2810   ZZ=            -84.1255
   XY=            -10.3208   XZ=              0.0000   YZ=              0.0000

 Normal termination of Gaussian 16 at Thu Jul 28 13:15:08 2022.
