 Gaussian 16, Revision C.01,
 Gaussian 16:  ES64L-G16RevC.01  3-Jul-2019

 ---------------------------------------------------------------
 #n M062X/6-311++G(d,p) TD(NStates=1) EmpiricalDispersion=GD3 SP
 ---------------------------------------------------------------

 ----
 SP_0
 ----
 Symbolic Z-matrix:
 Charge =  1 Multiplicity = 1

                         Standard orientation:
 ---------------------------------------------------------------------
 Center     Atomic      Atomic             Coordinates (Angstroms)
 Number     Number       Type             X           Y           Z
 ---------------------------------------------------------------------
      1          6           0        2.493926   -1.354801    0.000000
      2          6           0        3.704077   -0.664121    0.000000
      3          6           0        3.682611    0.721655    0.000000
      4          6           0        2.459599    1.412300    0.000000
      5          6           0       -2.466704    1.402767    0.000000
      6          6           0       -3.685094    0.706003    0.000000
      7          6           0       -3.698922   -0.679849    0.000000
      8          6           0       -2.491371   -1.366062    0.000000
      9          6           0        0.004680   -1.453362    0.000000
     10          6           0        0.000000    1.429192    0.000000
     11          6           0        1.262447   -0.677316    0.000000
     12          6           0        1.233982    0.737094    0.000000
     13          6           0       -1.261670   -0.676815    0.000000
     14          6           0       -1.240939    0.724502    0.000000
     15          1           0        2.499503   -2.438207    0.000000
     16          1           0        4.642489   -1.198578    0.000000
     17          1           0        4.609201    1.278394    0.000000
     18          1           0        2.455034    2.495014    0.000000
     19          1           0       -0.008555    2.510253    0.000000
     20          1           0       -2.480056    2.485062    0.000000
     21          1           0       -4.609318    1.266310    0.000000
     22          1           0       -4.630982   -1.224781    0.000000
     23          1           0       -2.476628   -2.449048    0.000000
     24          1           0        0.009789   -2.145771    0.859585
     25          1           0        0.009789   -2.145771   -0.859585
 ---------------------------------------------------------------------

 SCF Done:  E(RM062X) =  -539.760070183     A.U. after   15 cycles

 Excitation energies and oscillator strengths:

 Excited State   1:      Singlet-A'     2.8225 eV  439.28 nm  f=0.0287  <S**2>=0.000
      47 -> 48         0.70421
 This state for optimization and/or second-order correction.
 Total Energy, E(TD-HF/TD-DFT) =  -539.656346764
 Copying the excited state density for this state as the 1-particle RhoCI density.

 The electronic state is 1-A'.
 Alpha  occ. eigenvalues --  -10.77663 -10.73340 -10.73139 -10.72484 -10.72385
 Alpha  occ. eigenvalues --  -10.71488 -10.71250 -10.71146 -10.70979 -10.70864
 Alpha  occ. eigenvalues --  -10.70040 -10.69905 -10.69714 -10.69545  -1.16443
 Alpha  occ. eigenvalues --   -1.12466  -1.06946  -1.05734  -1.01311  -1.00184
 Alpha  occ. eigenvalues --   -0.95783  -0.91058  -0.86417  -0.85901  -0.83815
 Alpha  occ. eigenvalues --   -0.78400  -0.76028  -0.74418  -0.69584  -0.69231
 Alpha  occ. eigenvalues --   -0.68503  -0.68187  -0.68103  -0.64748  -0.64275
 Alpha  occ. eigenvalues --   -0.63063  -0.61866  -0.60005  -0.59678  -0.59100
 Alpha  occ. eigenvalues --   -0.56892  -0.55219  -0.54827  -0.52439  -0.46627
 Alpha  occ. eigenvalues --   -0.46057  -0.44499
 Alpha virt. eigenvalues --   -0.26089  -0.14670  -0.14095  -0.12772  -0.11179
 Alpha virt. eigenvalues --   -0.10086  -0.09230  -0.07983  -0.07969  -0.07476
 Alpha virt. eigenvalues --   -0.07204  -0.07145  -0.05643  -0.05581  -0.05333

 Mulliken charges:
               1
     1  C    0.096333
     2  C   -0.400812
     3  C   -0.438043
     4  C    0.030761
     5  C   -0.002505
     6  C   -0.442010
     7  C   -0.412551
     8  C    0.090146
     9  C   -0.334781
    10  C    0.092714
    11  C   -0.636600
    12  C    0.671728
    13  C   -0.636361
    14  C    0.702448
    15  H    0.237977
    16  H    0.256743
    17  H    0.249810
    18  H    0.221698
    19  H    0.190408
    20  H    0.222332
    21  H    0.247966
    22  H    0.255863
    23  H    0.236644
    24  H    0.250046
    25  H    0.250046
 Sum of Mulliken charges =   1.00000

 Dipole moment (field-independent basis, Debye):
    X=              0.1504    Y=              0.1879    Z=             -0.0000  Tot=              0.2407
 Quadrupole moment (field-independent basis, Debye-Ang):
   XX=            -31.1143   YY=            -56.2638   ZZ=            -84.1415
   XY=             -0.0529   XZ=             -0.0000   YZ=              0.0000

 Normal termination of Gaussian 16 at Thu Jul 28 14:07:04 2022.
