 Gaussian 16, Revision C.01,
 Gaussian 16:  ES64L-G16RevC.01  3-Jul-2019

 ---------------------------------------------------------------
 #n M062X/6-311++G(d,p) TD(NStates=1) EmpiricalDispersion=GD3 SP
 ---------------------------------------------------------------

 ----
 SP_0
 ----
 Symbolic Z-matrix:
 Charge =  1 Multiplicity = 1

                         Standard orientation:
 ---------------------------------------------------------------------
 Center     Atomic      Atomic             Coordinates (Angstroms)
 Number     Number       Type             X           Y           Z
 ---------------------------------------------------------------------
      1          6           0        0.000000    2.492655    1.360431
      2          6           0        0.000000    3.701508    0.671989
      3          6           0        0.000000    3.683861   -0.713830
      4          6           0        0.000000    2.463156   -1.407538
      5          6           0       -0.000000   -2.463156   -1.407538
      6          6           0       -0.000000   -3.683861   -0.713830
      7          6           0       -0.000000   -3.701508    0.671989
      8          6           0       -0.000000   -2.492655    1.360431
      9          6           0       -0.000000   -0.000000    1.453369
     10          6           0        0.000000    0.000000   -1.429189
     11          6           0        0.000000    1.262055    0.677065
     12          6           0        0.000000    1.237471   -0.730804
     13          6           0       -0.000000   -1.262055    0.677065
     14          6           0       -0.000000   -1.237471   -0.730804
     15          1           0        0.000000    2.488071    2.443647
     16          1           0        0.000000    4.636753    1.211689
     17          1           0        0.000000    4.609262   -1.272349
     18          1           0        0.000000    2.467550   -2.490059
     19          1           0        0.000000    0.000000   -2.510266
     20          1           0       -0.000000   -2.467550   -2.490059
     21          1           0       -0.000000   -4.609262   -1.272349
     22          1           0       -0.000000   -4.636753    1.211689
     23          1           0       -0.000000   -2.488071    2.443647
     24          1           0       -0.859585    0.000000    2.145787
     25          1           0        0.859585   -0.000000    2.145787
 ---------------------------------------------------------------------

 SCF Done:  E(RM062X) =  -539.760233593     A.U. after   15 cycles

 Excitation energies and oscillator strengths:

 Excited State   1:      Singlet-A1     2.8228 eV  439.22 nm  f=0.0287  <S**2>=0.000
      47 -> 48         0.70426
 This state for optimization and/or second-order correction.
 Total Energy, E(TD-HF/TD-DFT) =  -539.656496567
 Copying the excited state density for this state as the 1-particle RhoCI density.

 The electronic state is 1-A1.
 Alpha  occ. eigenvalues --  -10.77665 -10.73241 -10.73240 -10.72436 -10.72435
 Alpha  occ. eigenvalues --  -10.71369 -10.71368 -10.71005 -10.71005 -10.70979
 Alpha  occ. eigenvalues --  -10.69972 -10.69972 -10.69629 -10.69629  -1.16442
 Alpha  occ. eigenvalues --   -1.12466  -1.06945  -1.05731  -1.01313  -1.00185
 Alpha  occ. eigenvalues --   -0.95782  -0.91056  -0.86418  -0.85902  -0.83816
 Alpha  occ. eigenvalues --   -0.78400  -0.76028  -0.74418  -0.69561  -0.69246
 Alpha  occ. eigenvalues --   -0.68505  -0.68193  -0.68102  -0.64739  -0.64284
 Alpha  occ. eigenvalues --   -0.63065  -0.61867  -0.60003  -0.59679  -0.59093
 Alpha  occ. eigenvalues --   -0.56897  -0.55214  -0.54840  -0.52438  -0.46625
 Alpha  occ. eigenvalues --   -0.46056  -0.44501
 Alpha virt. eigenvalues --   -0.26088  -0.14669  -0.14098  -0.12773  -0.11179
 Alpha virt. eigenvalues --   -0.10086  -0.09230  -0.07983  -0.07970  -0.07476
 Alpha virt. eigenvalues --   -0.07203  -0.07146  -0.05643  -0.05581  -0.05332

 Mulliken charges:
               1
     1  C    0.093205
     2  C   -0.406767
     3  C   -0.440116
     4  C    0.014747
     5  C    0.014747
     6  C   -0.440116
     7  C   -0.406767
     8  C    0.093205
     9  C   -0.333928
    10  C    0.093303
    11  C   -0.636467
    12  C    0.685970
    13  C   -0.636467
    14  C    0.685970
    15  H    0.237283
    16  H    0.256304
    17  H    0.248889
    18  H    0.222011
    19  H    0.190401
    20  H    0.222011
    21  H    0.248889
    22  H    0.256304
    23  H    0.237283
    24  H    0.250053
    25  H    0.250053
 Sum of Mulliken charges =   1.00000

 Dipole moment (field-independent basis, Debye):
    X=             -0.0000    Y=              0.0000    Z=             -0.1876  Tot=              0.1876
 Quadrupole moment (field-independent basis, Debye-Ang):
   XX=            -84.1419   YY=            -31.1160   ZZ=            -56.2627
   XY=              0.0000   XZ=              0.0000   YZ=             -0.0000

 Normal termination of Gaussian 16 at Tue Aug  2 15:24:47 2022.
