 Gaussian 16, Revision C.01,
 Gaussian 16:  ES64L-G16RevC.01  3-Jul-2019

 ---------------------------------------------------------------
 #n M062X/6-311++G(d,p) TD(NStates=1) EmpiricalDispersion=GD3 SP
 ---------------------------------------------------------------

 -----
 SP_-2
 -----
 Symbolic Z-matrix:
 Charge =  1 Multiplicity = 1

                         Standard orientation:
 ---------------------------------------------------------------------
 Center     Atomic      Atomic             Coordinates (Angstroms)
 Number     Number       Type             X           Y           Z
 ---------------------------------------------------------------------
      1          6           0        0.075979    2.805225    0.000000
      2          6           0       -1.064081    3.599859    0.000000
      3          6           0       -2.301572    2.980472    0.000000
      4          6           0       -2.397451    1.571496    0.000000
      5          6           0       -0.133865   -2.804121    0.000000
      6          6           0        1.014417   -3.598899    0.000000
      7          6           0        2.271462   -3.009165    0.000000
      8          6           0        2.373422   -1.619367    0.000000
      9          6           0        1.292156    0.665339    0.000000
     10          6           0       -1.268654   -0.658215    0.000000
     11          6           0        0.000000    1.401990    0.000000
     12          6           0       -1.249506    0.761987    0.000000
     13          6           0        1.218244   -0.810264    0.000000
     14          6           0       -0.060666   -1.410056    0.000000
     15          1           0        1.056452    3.266844    0.000000
     16          1           0       -0.978829    4.676512    0.000000
     17          1           0       -3.208076    3.571346    0.000000
     18          1           0       -3.377218    1.110022    0.000000
     19          1           0       -2.209811   -1.192491    0.000000
     20          1           0       -1.109651   -3.273430    0.000000
     21          1           0        0.914184   -4.674365    0.000000
     22          1           0        3.161204   -3.621841    0.000000
     23          1           0        3.349742   -1.149574    0.000000
     24          1           0        1.891344    1.014647    0.859585
     25          1           0        1.891344    1.014647   -0.859585
 ---------------------------------------------------------------------

 SCF Done:  E(RM062X) =  -539.758312164     A.U. after   15 cycles

 Excitation energies and oscillator strengths:

 Excited State   1:      Singlet-A'     2.8196 eV  439.73 nm  f=0.0288  <S**2>=0.000
      47 -> 48         0.70423
 This state for optimization and/or second-order correction.
 Total Energy, E(TD-HF/TD-DFT) =  -539.654695503
 Copying the excited state density for this state as the 1-particle RhoCI density.

 The electronic state is 1-A'.
 Alpha  occ. eigenvalues --  -10.77702 -10.73355 -10.73149 -10.72518 -10.72382
 Alpha  occ. eigenvalues --  -10.71537 -10.71221 -10.71120 -10.71012 -10.70910
 Alpha  occ. eigenvalues --  -10.70170 -10.69805 -10.69738 -10.69542  -1.16441
 Alpha  occ. eigenvalues --   -1.12458  -1.06934  -1.05724  -1.01313  -1.00179
 Alpha  occ. eigenvalues --   -0.95765  -0.91034  -0.86503  -0.85809  -0.83804
 Alpha  occ. eigenvalues --   -0.78382  -0.76014  -0.74396  -0.69562  -0.69271
 Alpha  occ. eigenvalues --   -0.68495  -0.68156  -0.68079  -0.64728  -0.64273
 Alpha  occ. eigenvalues --   -0.63031  -0.61833  -0.59993  -0.59668  -0.59080
 Alpha  occ. eigenvalues --   -0.56871  -0.55229  -0.54825  -0.52429  -0.46628
 Alpha  occ. eigenvalues --   -0.46054  -0.44488
 Alpha virt. eigenvalues --   -0.26086  -0.14682  -0.14108  -0.12779  -0.11182
 Alpha virt. eigenvalues --   -0.10090  -0.09231  -0.07985  -0.07974  -0.07479
 Alpha virt. eigenvalues --   -0.07207  -0.07150  -0.05648  -0.05582  -0.05333

 Mulliken charges:
               1
     1  C    0.152877
     2  C   -0.392649
     3  C   -0.450403
     4  C   -0.056571
     5  C    0.067768
     6  C   -0.425442
     7  C   -0.417455
     8  C    0.030284
     9  C   -0.343929
    10  C    0.087457
    11  C   -0.626409
    12  C    0.607375
    13  C   -0.631234
    14  C    0.776447
    15  H    0.237441
    16  H    0.257194
    17  H    0.248420
    18  H    0.225154
    19  H    0.191513
    20  H    0.218062
    21  H    0.249874
    22  H    0.255691
    23  H    0.237900
    24  H    0.250317
    25  H    0.250317
 Sum of Mulliken charges =   1.00000

 Dipole moment (field-independent basis, Debye):
    X=             -0.1511    Y=             -0.1155    Z=             -0.0000  Tot=              0.1901
 Quadrupole moment (field-independent basis, Debye-Ang):
   XX=            -51.0305   YY=            -36.3350   ZZ=            -84.1587
   XY=            -10.2129   XZ=             -0.0000   YZ=             -0.0000

 Normal termination of Gaussian 16 at Tue Aug  2 15:17:26 2022.
