 Gaussian 16, Revision C.01,
 Gaussian 16:  ES64L-G16RevC.01  3-Jul-2019

 ---------------------------------------------------------------
 #n M062X/6-311++G(d,p) TD(NStates=1) EmpiricalDispersion=GD3 SP
 ---------------------------------------------------------------

 ----
 SP_6
 ----
 Symbolic Z-matrix:
 Charge =  1 Multiplicity = 1

                         Standard orientation:
 ---------------------------------------------------------------------
 Center     Atomic      Atomic             Coordinates (Angstroms)
 Number     Number       Type             X           Y           Z
 ---------------------------------------------------------------------
      1          6           0        2.481726    1.677345    0.000000
      2          6           0        2.354215    3.061588    0.000000
      3          6           0        1.087326    3.572890    0.000000
      4          6           0       -0.104987    2.659637    0.000000
      5          6           0       -2.532882   -1.630288    0.000000
      6          6           0       -2.365309   -2.936009    0.000000
      7          6           0       -1.068600   -3.502633    0.000000
      8          6           0        0.062060   -2.683383    0.000000
      9          6           0        1.292433   -0.664795    0.000000
     10          6           0       -1.304883    0.588535    0.000000
     11          6           0        1.255840    0.768164    0.000000
     12          6           0        0.000000    1.326775    0.000000
     13          6           0       -0.055443   -1.394835    0.000000
     14          6           0       -1.352433   -0.759360    0.000000
     15          1           0        3.458837    1.208447    0.000000
     16          1           0        3.216857    3.714179    0.000000
     17          1           0        0.890399    4.642130    0.000000
     18          1           0       -1.081570    3.128046    0.000000
     19          1           0       -2.187068    1.235090    0.000000
     20          1           0       -3.513523   -1.169674    0.000000
     21          1           0       -3.221948   -3.609942    0.000000
     22          1           0       -0.935075   -4.579269    0.000000
     23          1           0        1.043405   -3.144150    0.000000
     24          1           0        1.917654   -0.963319    0.859585
     25          1           0        1.917654   -0.963319   -0.859585
 ---------------------------------------------------------------------

 SCF Done:  E(RM062X) =  -539.698833139     A.U. after   16 cycles

 Excitation energies and oscillator strengths:

 Excited State   1:      Singlet-A'     2.1994 eV  563.72 nm  f=0.0122  <S**2>=0.000
      47 -> 48         0.70355
 This state for optimization and/or second-order correction.
 Total Energy, E(TD-HF/TD-DFT) =  -539.618006781
 Copying the excited state density for this state as the 1-particle RhoCI density.

 The electronic state is 1-A'.
 Alpha  occ. eigenvalues --  -10.77228 -10.74102 -10.73945 -10.73592 -10.73048
 Alpha  occ. eigenvalues --  -10.71912 -10.70894 -10.70766 -10.70753 -10.70039
 Alpha  occ. eigenvalues --  -10.69937 -10.69574 -10.68820 -10.68729  -1.17222
 Alpha  occ. eigenvalues --   -1.12444  -1.06898  -1.06573  -1.01441  -1.01039
 Alpha  occ. eigenvalues --   -0.94841  -0.90744  -0.86871  -0.85376  -0.83270
 Alpha  occ. eigenvalues --   -0.78004  -0.76557  -0.74051  -0.70761  -0.68903
 Alpha  occ. eigenvalues --   -0.68240  -0.67905  -0.67718  -0.66205  -0.63647
 Alpha  occ. eigenvalues --   -0.61951  -0.61382  -0.60950  -0.59204  -0.58457
 Alpha  occ. eigenvalues --   -0.56734  -0.55344  -0.53146  -0.52394  -0.49408
 Alpha  occ. eigenvalues --   -0.46206  -0.41756
 Alpha virt. eigenvalues --   -0.26265  -0.14837  -0.13855  -0.12458  -0.11290
 Alpha virt. eigenvalues --   -0.10130  -0.09418  -0.07895  -0.07791  -0.07576
 Alpha virt. eigenvalues --   -0.07240  -0.07091  -0.05733  -0.05553  -0.05446

 Mulliken charges:
               1
     1  C   -0.070111
     2  C   -0.440394
     3  C   -0.436126
     4  C    0.089783
     5  C   -0.085149
     6  C   -0.481806
     7  C   -0.346226
     8  C    0.194278
     9  C   -0.447354
    10  C   -0.015494
    11  C   -0.518346
    12  C    0.966401
    13  C   -0.547485
    14  C    0.503439
    15  H    0.238164
    16  H    0.242326
    17  H    0.246820
    18  H    0.198785
    19  H    0.194368
    20  H    0.239472
    21  H    0.257581
    22  H    0.273682
    23  H    0.246145
    24  H    0.248622
    25  H    0.248622
 Sum of Mulliken charges =   1.00000

 Dipole moment (field-independent basis, Debye):
    X=             -1.4464    Y=             -2.4674    Z=              0.0000  Tot=              2.8601
 Quadrupole moment (field-independent basis, Debye-Ang):
   XX=            -49.7298   YY=            -36.7392   ZZ=            -84.1400
   XY=             11.3980   XZ=              0.0000   YZ=             -0.0000

 Normal termination of Gaussian 16 at Tue Aug  2 15:46:31 2022.
