 Gaussian 16, Revision C.01,
 Gaussian 16:  ES64L-G16RevC.01  3-Jul-2019

 ---------------------------------------------------------------
 #n M062X/6-311++G(d,p) TD(NStates=1) EmpiricalDispersion=GD3 SP
 ---------------------------------------------------------------

 -----
 SP_-4
 -----
 Symbolic Z-matrix:
 Charge =  1 Multiplicity = 1

                         Standard orientation:
 ---------------------------------------------------------------------
 Center     Atomic      Atomic             Coordinates (Angstroms)
 Number     Number       Type             X           Y           Z
 ---------------------------------------------------------------------
      1          6           0        0.143673    2.796802    0.000000
      2          6           0       -0.935352    3.666035    0.000000
      3          6           0       -2.179149    3.101503    0.000000
      4          6           0       -2.340580    1.631532    0.000000
      5          6           0       -0.214757   -2.812680    0.000000
      6          6           0        0.844601   -3.618080    0.000000
      7          6           0        2.139593   -3.068543    0.000000
      8          6           0        2.337990   -1.680477    0.000000
      9          6           0        1.302937    0.644674    0.000000
     10          6           0       -1.259100   -0.681260    0.000000
     11          6           0        0.000000    1.346308    0.000000
     12          6           0       -1.252501    0.776664    0.000000
     13          6           0        1.262638   -0.849557    0.000000
     14          6           0       -0.068676   -1.401822    0.000000
     15          1           0        1.159644    3.181485    0.000000
     16          1           0       -0.789780    4.736057    0.000000
     17          1           0       -3.073611    3.713260    0.000000
     18          1           0       -3.355841    1.246972    0.000000
     19          1           0       -2.199080   -1.223136    0.000000
     20          1           0       -1.226290   -3.205199    0.000000
     21          1           0        0.720707   -4.689163    0.000000
     22          1           0        2.995260   -3.731427    0.000000
     23          1           0        3.350071   -1.287493    0.000000
     24          1           0        1.865505    1.076027    0.859585
     25          1           0        1.865505    1.076027   -0.859585
 ---------------------------------------------------------------------

 SCF Done:  E(RM062X) =  -539.734625095     A.U. after   16 cycles

 Excitation energies and oscillator strengths:

 Excited State   1:      Singlet-A'     2.4993 eV  496.07 nm  f=0.0156  <S**2>=0.000
      47 -> 48         0.70324
 This state for optimization and/or second-order correction.
 Total Energy, E(TD-HF/TD-DFT) =  -539.642775851
 Copying the excited state density for this state as the 1-particle RhoCI density.

 The electronic state is 1-A'.
 Alpha  occ. eigenvalues --  -10.77628 -10.74265 -10.72907 -10.72807 -10.72406
 Alpha  occ. eigenvalues --  -10.71924 -10.71610 -10.71298 -10.70951 -10.70747
 Alpha  occ. eigenvalues --  -10.69768 -10.69510 -10.69430 -10.69373  -1.16627
 Alpha  occ. eigenvalues --   -1.12491  -1.06890  -1.05956  -1.01320  -1.00571
 Alpha  occ. eigenvalues --   -0.95313  -0.90867  -0.86576  -0.85733  -0.83800
 Alpha  occ. eigenvalues --   -0.78077  -0.76218  -0.74222  -0.70013  -0.69523
 Alpha  occ. eigenvalues --   -0.68092  -0.67837  -0.67790  -0.65593  -0.64333
 Alpha  occ. eigenvalues --   -0.62326  -0.61097  -0.60684  -0.59371  -0.58925
 Alpha  occ. eigenvalues --   -0.56557  -0.55624  -0.53958  -0.52393  -0.48019
 Alpha  occ. eigenvalues --   -0.46150  -0.43087
 Alpha virt. eigenvalues --   -0.26118  -0.14797  -0.14059  -0.12797  -0.11224
 Alpha virt. eigenvalues --   -0.10128  -0.09298  -0.07939  -0.07828  -0.07499
 Alpha virt. eigenvalues --   -0.07254  -0.07126  -0.05667  -0.05559  -0.05369

 Mulliken charges:
               1
     1  C    0.243978
     2  C   -0.374849
     3  C   -0.450997
     4  C   -0.212440
     5  C    0.111638
     6  C   -0.394526
     7  C   -0.413662
     8  C   -0.044799
     9  C   -0.402224
    10  C    0.052611
    11  C   -0.555202
    12  C    0.564816
    13  C   -0.616284
    14  C    0.859059
    15  H    0.235498
    16  H    0.251659
    17  H    0.243588
    18  H    0.224345
    19  H    0.192986
    20  H    0.217991
    21  H    0.254473
    22  H    0.262560
    23  H    0.241923
    24  H    0.253929
    25  H    0.253929
 Sum of Mulliken charges =   1.00000

 Dipole moment (field-independent basis, Debye):
    X=              0.5711    Y=             -1.4665    Z=              0.0000  Tot=              1.5737
 Quadrupole moment (field-independent basis, Debye-Ang):
   XX=            -51.9746   YY=            -35.1372   ZZ=            -84.1981
   XY=             -9.6303   XZ=             -0.0000   YZ=              0.0000

 Normal termination of Gaussian 16 at Tue Aug  2 15:08:31 2022.
