 Gaussian 16, Revision C.01,
 Gaussian 16:  ES64L-G16RevC.01  3-Jul-2019

 ---------------------------------------------------------------
 #n M062X/6-311++G(d,p) TD(NStates=1) EmpiricalDispersion=GD3 SP
 ---------------------------------------------------------------

 -----
 SP_-6
 -----
 Symbolic Z-matrix:
 Charge =  1 Multiplicity = 1

                         Standard orientation:
 ---------------------------------------------------------------------
 Center     Atomic      Atomic             Coordinates (Angstroms)
 Number     Number       Type             X           Y           Z
 ---------------------------------------------------------------------
      1          6           0        0.203756    2.759567    0.000000
      2          6           0       -0.830360    3.682952    0.000000
      3          6           0       -2.096461    3.174244    0.000000
      4          6           0       -2.325206    1.704042    0.000000
      5          6           0       -0.277956   -2.777374    0.000000
      6          6           0        0.736712   -3.628325    0.000000
      7          6           0        2.057281   -3.134279    0.000000
      8          6           0        2.325980   -1.753404    0.000000
      9          6           0        1.315464    0.619157    0.000000
     10          6           0       -1.270829   -0.660759    0.000000
     11          6           0        0.000000    1.317902    0.000000
     12          6           0       -1.270689    0.799609    0.000000
     13          6           0        1.284392   -0.875060    0.000000
     14          6           0       -0.071979   -1.377225    0.000000
     15          1           0        1.240249    3.093137    0.000000
     16          1           0       -0.630535    4.745821    0.000000
     17          1           0       -2.963713    3.826344    0.000000
     18          1           0       -3.360986    1.370578    0.000000
     19          1           0       -2.203964   -1.224807    0.000000
     20          1           0       -1.310208   -3.118888    0.000000
     21          1           0        0.564830   -4.692219    0.000000
     22          1           0        2.879781   -3.840763    0.000000
     23          1           0        3.358792   -1.411437    0.000000
     24          1           0        1.872561    1.072974    0.859585
     25          1           0        1.872561    1.072974   -0.859585
 ---------------------------------------------------------------------

 SCF Done:  E(RM062X) =  -539.722660499     A.U. after   15 cycles

 Excitation energies and oscillator strengths:

 Excited State   1:      Singlet-A'     2.4722 eV  501.52 nm  f=0.0151  <S**2>=0.000
      47 -> 48         0.70318
 This state for optimization and/or second-order correction.
 Total Energy, E(TD-HF/TD-DFT) =  -539.631809550
 Copying the excited state density for this state as the 1-particle RhoCI density.

 The electronic state is 1-A'.
 Alpha  occ. eigenvalues --  -10.77807 -10.74456 -10.72960 -10.72926 -10.72407
 Alpha  occ. eigenvalues --  -10.72063 -10.71543 -10.71474 -10.71133 -10.71016
 Alpha  occ. eigenvalues --  -10.69695 -10.69599 -10.69427 -10.69307  -1.16612
 Alpha  occ. eigenvalues --   -1.12468  -1.06852  -1.05914  -1.01334  -1.00524
 Alpha  occ. eigenvalues --   -0.95226  -0.90738  -0.86737  -0.85561  -0.83748
 Alpha  occ. eigenvalues --   -0.77946  -0.76150  -0.74122  -0.70077  -0.69557
 Alpha  occ. eigenvalues --   -0.68083  -0.67664  -0.67630  -0.65545  -0.64296
 Alpha  occ. eigenvalues --   -0.62171  -0.60852  -0.60648  -0.59354  -0.58832
 Alpha  occ. eigenvalues --   -0.56342  -0.55684  -0.53882  -0.52347  -0.48090
 Alpha  occ. eigenvalues --   -0.46140  -0.42972
 Alpha virt. eigenvalues --   -0.26105  -0.14881  -0.14127  -0.12837  -0.11244
 Alpha virt. eigenvalues --   -0.10152  -0.09304  -0.07944  -0.07819  -0.07501
 Alpha virt. eigenvalues --   -0.07279  -0.07144  -0.05685  -0.05559  -0.05370

 Mulliken charges:
               1
     1  C    0.278054
     2  C   -0.345690
     3  C   -0.395060
     4  C    0.000866
     5  C    0.093221
     6  C   -0.351865
     7  C   -0.348573
     8  C   -0.119221
     9  C   -0.597455
    10  C   -0.284514
    11  C    0.140435
    12  C    0.242441
    13  C   -0.640671
    14  C    0.667353
    15  H    0.238660
    16  H    0.252749
    17  H    0.242664
    18  H    0.240854
    19  H    0.202411
    20  H    0.210618
    21  H    0.255725
    22  H    0.262999
    23  H    0.244350
    24  H    0.254824
    25  H    0.254824
 Sum of Mulliken charges =   1.00000

 Dipole moment (field-independent basis, Debye):
    X=              0.5656    Y=             -1.4943    Z=              0.0000  Tot=              1.5978
 Quadrupole moment (field-independent basis, Debye-Ang):
   XX=            -52.3919   YY=            -34.6482   ZZ=            -84.2939
   XY=             -9.2894   XZ=             -0.0000   YZ=             -0.0000

 Normal termination of Gaussian 16 at Tue Aug  2 15:00:40 2022.
