 Gaussian 16, Revision C.01,
 Gaussian 16:  ES64L-G16RevC.01  3-Jul-2019

 ---------------------------------------------------------------
 #n M062X/6-311++G(d,p) TD(NStates=1) EmpiricalDispersion=GD3 SP
 ---------------------------------------------------------------

 -----
 SP_-2
 -----
 Symbolic Z-matrix:
 Charge =  1 Multiplicity = 1

                         Standard orientation:
 ---------------------------------------------------------------------
 Center     Atomic      Atomic             Coordinates (Angstroms)
 Number     Number       Type             X           Y           Z
 ---------------------------------------------------------------------
      1          6           0        0.043268   -2.750824    0.000000
      2          6           0        1.248048   -3.460183    0.000000
      3          6           0        2.496223   -2.790429    0.000000
      4          6           0        2.546643   -1.494791    0.000000
      5          6           0       -0.003976    2.721000    0.000000
      6          6           0       -1.278996    3.537435    0.000000
      7          6           0       -2.492869    2.928254    0.000000
      8          6           0       -2.488368    1.544065    0.000000
      9          6           0       -1.270015   -0.707016    0.000000
     10          6           0        1.290081    0.623934    0.000000
     11          6           0        0.055731   -1.454134    0.000000
     12          6           0        1.310646   -0.723974    0.000000
     13          6           0       -1.203306    0.733552    0.000000
     14          6           0        0.000000    1.377121    0.000000
     15          1           0       -0.889004   -3.302509    0.000000
     16          1           0        1.217248   -4.541861    0.000000
     17          1           0        3.400651   -3.387511    0.000000
     18          1           0        3.478218   -0.943289    0.000000
     19          1           0        2.193200    1.221815    0.000000
     20          1           0        0.923204    3.280112    0.000000
     21          1           0       -1.172139    4.617032    0.000000
     22          1           0       -3.410752    3.494287    0.000000
     23          1           0       -3.416055    0.984441    0.000000
     24          1           0       -1.921615   -0.963291    0.859585
     25          1           0       -1.921615   -0.963291   -0.859585
 ---------------------------------------------------------------------

 SCF Done:  E(RM062X) =  -539.705627239     A.U. after   16 cycles

 Excitation energies and oscillator strengths:

 Excited State   1:      Singlet-A'     2.1608 eV  573.78 nm  f=0.0128  <S**2>=0.000
      47 -> 48         0.70328
 This state for optimization and/or second-order correction.
 Total Energy, E(TD-HF/TD-DFT) =  -539.626218132
 Copying the excited state density for this state as the 1-particle RhoCI density.

 The electronic state is 1-A'.
 Alpha  occ. eigenvalues --  -10.76960 -10.74360 -10.74091 -10.73353 -10.72523
 Alpha  occ. eigenvalues --  -10.71773 -10.70947 -10.70816 -10.70385 -10.70368
 Alpha  occ. eigenvalues --  -10.69731 -10.69528 -10.68822 -10.68500  -1.17237
 Alpha  occ. eigenvalues --   -1.12535  -1.06997  -1.06644  -1.01476  -1.01105
 Alpha  occ. eigenvalues --   -0.94888  -0.90782  -0.86635  -0.85635  -0.83604
 Alpha  occ. eigenvalues --   -0.77922  -0.76744  -0.74190  -0.70696  -0.69260
 Alpha  occ. eigenvalues --   -0.68120  -0.67841  -0.67729  -0.66377  -0.64052
 Alpha  occ. eigenvalues --   -0.61998  -0.61497  -0.61155  -0.59129  -0.58430
 Alpha  occ. eigenvalues --   -0.56685  -0.55518  -0.52979  -0.52436  -0.49676
 Alpha  occ. eigenvalues --   -0.46262  -0.41601
 Alpha virt. eigenvalues --   -0.26273  -0.14781  -0.13777  -0.12521  -0.11274
 Alpha virt. eigenvalues --   -0.10132  -0.09419  -0.07861  -0.07700  -0.07548
 Alpha virt. eigenvalues --   -0.07246  -0.07010  -0.05681  -0.05535  -0.05450

 Mulliken charges:
               1
     1  C    0.089406
     2  C   -0.383426
     3  C   -0.440730
     4  C    0.023834
     5  C    0.013121
     6  C   -0.454814
     7  C   -0.428179
     8  C    0.086056
     9  C   -0.374947
    10  C    0.045153
    11  C   -0.648829
    12  C    0.661331
    13  C   -0.524493
    14  C    0.714610
    15  H    0.243251
    16  H    0.270972
    17  H    0.256496
    18  H    0.233484
    19  H    0.185771
    20  H    0.210910
    21  H    0.242058
    22  H    0.242981
    23  H    0.234164
    24  H    0.250910
    25  H    0.250910
 Sum of Mulliken charges =   1.00000

 Dipole moment (field-independent basis, Debye):
    X=              1.5180    Y=             -2.4882    Z=             -0.0000  Tot=              2.9147
 Quadrupole moment (field-independent basis, Debye-Ang):
   XX=            -48.9503   YY=            -37.6224   ZZ=            -84.0357
   XY=            -11.8370   XZ=              0.0000   YZ=             -0.0000

 Normal termination of Gaussian 16 at Tue Aug  2 15:19:39 2022.
