 Gaussian 16, Revision C.01,
 Gaussian 16:  ES64L-G16RevC.01  3-Jul-2019

 ---------------------------------------------------------------
 #n M062X/6-311++G(d,p) TD(NStates=1) EmpiricalDispersion=GD3 SP
 ---------------------------------------------------------------

 ----
 SP_4
 ----
 Symbolic Z-matrix:
 Charge =  1 Multiplicity = 1

                         Standard orientation:
 ---------------------------------------------------------------------
 Center     Atomic      Atomic             Coordinates (Angstroms)
 Number     Number       Type             X           Y           Z
 ---------------------------------------------------------------------
      1          6           0        2.463091    1.594789    0.000000
      2          6           0        2.378920    2.983916    0.000000
      3          6           0        1.129585    3.562037    0.000000
      4          6           0       -0.058915    2.733876    0.000000
      5          6           0       -2.499629   -1.546577    0.000000
      6          6           0       -2.398061   -2.906294    0.000000
      7          6           0       -1.144462   -3.526881    0.000000
      8          6           0        0.008305   -2.745152    0.000000
      9          6           0        1.277328   -0.693336    0.000000
     10          6           0       -1.272550    0.651439    0.000000
     11          6           0        1.254202    0.761882    0.000000
     12          6           0        0.000000    1.368882    0.000000
     13          6           0       -0.058509   -1.397585    0.000000
     14          6           0       -1.317390   -0.732108    0.000000
     15          1           0        3.429227    1.104071    0.000000
     16          1           0        3.268709    3.597042    0.000000
     17          1           0        1.004651    4.637144    0.000000
     18          1           0       -1.024530    3.224095    0.000000
     19          1           0       -2.171274    1.261920    0.000000
     20          1           0       -3.469435   -1.064082    0.000000
     21          1           0       -3.293114   -3.519016    0.000000
     22          1           0       -1.058792   -4.605538    0.000000
     23          1           0        0.978812   -3.227811    0.000000
     24          1           0        1.882123   -1.030574    0.859585
     25          1           0        1.882123   -1.030574   -0.859585
 ---------------------------------------------------------------------

 SCF Done:  E(RM062X) =  -539.742639273     A.U. after   16 cycles

 Excitation energies and oscillator strengths:

 Excited State   1:      Singlet-A'     2.5870 eV  479.26 nm  f=0.0180  <S**2>=0.000
      47 -> 48         0.70332
 This state for optimization and/or second-order correction.
 Total Energy, E(TD-HF/TD-DFT) =  -539.647569210
 Copying the excited state density for this state as the 1-particle RhoCI density.

 The electronic state is 1-A'.
 Alpha  occ. eigenvalues --  -10.77613 -10.73709 -10.73156 -10.72654 -10.72377
 Alpha  occ. eigenvalues --  -10.72359 -10.71630 -10.70975 -10.70411 -10.70253
 Alpha  occ. eigenvalues --  -10.70049 -10.69945 -10.69839 -10.69127  -1.16652
 Alpha  occ. eigenvalues --   -1.12434  -1.06866  -1.05977  -1.01223  -1.00600
 Alpha  occ. eigenvalues --   -0.95390  -0.90986  -0.86745  -0.85554  -0.83624
 Alpha  occ. eigenvalues --   -0.78286  -0.76188  -0.74241  -0.70031  -0.69083
 Alpha  occ. eigenvalues --   -0.68355  -0.68134  -0.67862  -0.65439  -0.63935
 Alpha  occ. eigenvalues --   -0.62613  -0.61529  -0.60597  -0.59145  -0.59097
 Alpha  occ. eigenvalues --   -0.56912  -0.55369  -0.54233  -0.52415  -0.47623
 Alpha  occ. eigenvalues --   -0.46143  -0.43434
 Alpha virt. eigenvalues --   -0.26130  -0.14737  -0.14050  -0.12689  -0.11211
 Alpha virt. eigenvalues --   -0.10100  -0.09283  -0.07958  -0.07934  -0.07514
 Alpha virt. eigenvalues --   -0.07211  -0.07146  -0.05677  -0.05577  -0.05361

 Mulliken charges:
               1
     1  C   -0.011333
     2  C   -0.431525
     3  C   -0.428180
     4  C    0.083788
     5  C   -0.082498
     6  C   -0.460759
     7  C   -0.370859
     8  C    0.176568
     9  C   -0.381018
    10  C    0.053755
    11  C   -0.593204
    12  C    0.862116
    13  C   -0.606017
    14  C    0.562141
    15  H    0.237300
    16  H    0.248514
    17  H    0.247733
    18  H    0.208618
    19  H    0.193503
    20  H    0.232341
    21  H    0.253003
    22  H    0.265290
    23  H    0.241663
    24  H    0.249530
    25  H    0.249530
 Sum of Mulliken charges =   1.00000

 Dipole moment (field-independent basis, Debye):
    X=             -0.8537    Y=             -1.1847    Z=              0.0000  Tot=              1.4602
 Quadrupole moment (field-independent basis, Debye-Ang):
   XX=            -49.9422   YY=            -37.1800   ZZ=            -84.1668
   XY=             11.0025   XZ=              0.0000   YZ=              0.0000

 Normal termination of Gaussian 16 at Tue Aug  2 15:39:28 2022.
