 Gaussian 16, Revision C.01,
 Gaussian 16:  ES64L-G16RevC.01  3-Jul-2019

 ---------------------------------------------------------------
 #n M062X/6-311++G(d,p) TD(NStates=1) EmpiricalDispersion=GD3 SP
 ---------------------------------------------------------------

 -----
 SP_-6
 -----
 Symbolic Z-matrix:
 Charge =  1 Multiplicity = 1

                         Standard orientation:
 ---------------------------------------------------------------------
 Center     Atomic      Atomic             Coordinates (Angstroms)
 Number     Number       Type             X           Y           Z
 ---------------------------------------------------------------------
      1          6           0        0.218525    2.786342    0.000000
      2          6           0       -0.793323    3.729801    0.000000
      3          6           0       -2.042581    3.223280    0.000000
      4          6           0       -2.277715    1.695770    0.000000
      5          6           0       -0.304027   -2.818102    0.000000
      6          6           0        0.664754   -3.631913    0.000000
      7          6           0        1.997766   -3.128030    0.000000
      8          6           0        2.296306   -1.747262    0.000000
      9          6           0        1.315428    0.620397    0.000000
     10          6           0       -1.254276   -0.702111    0.000000
     11          6           0        0.000000    1.292126    0.000000
     12          6           0       -1.253645    0.795761    0.000000
     13          6           0        1.303255   -0.896083    0.000000
     14          6           0       -0.080060   -1.394315    0.000000
     15          1           0        1.266878    3.089477    0.000000
     16          1           0       -0.584904    4.789870    0.000000
     17          1           0       -2.922859    3.858164    0.000000
     18          1           0       -3.325354    1.392733    0.000000
     19          1           0       -2.196047   -1.249606    0.000000
     20          1           0       -1.348218   -3.129222    0.000000
     21          1           0        0.514460   -4.697795    0.000000
     22          1           0        2.815125   -3.841776    0.000000
     23          1           0        3.341061   -1.435695    0.000000
     24          1           0        1.848702    1.134943    0.859585
     25          1           0        1.848702    1.134943   -0.859585
 ---------------------------------------------------------------------

 SCF Done:  E(RM062X) =  -539.673159342     A.U. after   16 cycles

 Excitation energies and oscillator strengths:

 Excited State   1:      Singlet-A'     2.0804 eV  595.97 nm  f=0.0140  <S**2>=0.000
      47 -> 48         0.70247
 This state for optimization and/or second-order correction.
 Total Energy, E(TD-HF/TD-DFT) =  -539.596706310
 Copying the excited state density for this state as the 1-particle RhoCI density.

 The electronic state is 1-A'.
 Alpha  occ. eigenvalues --  -10.77271 -10.75100 -10.74552 -10.73246 -10.71854
 Alpha  occ. eigenvalues --  -10.71796 -10.71717 -10.71312 -10.71249 -10.70298
 Alpha  occ. eigenvalues --  -10.69856 -10.69195 -10.69146 -10.68290  -1.17175
 Alpha  occ. eigenvalues --   -1.12543  -1.07122  -1.06498  -1.01326  -1.01099
 Alpha  occ. eigenvalues --   -0.94712  -0.90452  -0.86588  -0.85707  -0.83653
 Alpha  occ. eigenvalues --   -0.77509  -0.76603  -0.74077  -0.70629  -0.69802
 Alpha  occ. eigenvalues --   -0.67830  -0.67431  -0.67194  -0.66341  -0.64201
 Alpha  occ. eigenvalues --   -0.61744  -0.61395  -0.60991  -0.58469  -0.58159
 Alpha  occ. eigenvalues --   -0.56081  -0.55761  -0.52667  -0.52330  -0.49990
 Alpha  occ. eigenvalues --   -0.46315  -0.41224
 Alpha virt. eigenvalues --   -0.26225  -0.15017  -0.14039  -0.12579  -0.11314
 Alpha virt. eigenvalues --   -0.10205  -0.09457  -0.07846  -0.07595  -0.07540
 Alpha virt. eigenvalues --   -0.07343  -0.06979  -0.05698  -0.05513  -0.05433

 Mulliken charges:
               1
     1  C    0.297387
     2  C   -0.363577
     3  C   -0.371575
     4  C   -0.083597
     5  C    0.073444
     6  C   -0.360589
     7  C   -0.345794
     8  C   -0.126307
     9  C   -0.590211
    10  C   -0.285966
    11  C    0.288058
    12  C    0.283534
    13  C   -0.674016
    14  C    0.597116
    15  H    0.235234
    16  H    0.247398
    17  H    0.239170
    18  H    0.235318
    19  H    0.199131
    20  H    0.215983
    21  H    0.257924
    22  H    0.270043
    23  H    0.245551
    24  H    0.258172
    25  H    0.258172
 Sum of Mulliken charges =   1.00000

 Dipole moment (field-independent basis, Debye):
    X=              1.2441    Y=             -2.6862    Z=             -0.0000  Tot=              2.9603
 Quadrupole moment (field-independent basis, Debye-Ang):
   XX=            -52.9377   YY=            -33.4890   ZZ=            -84.2363
   XY=             -9.1193   XZ=             -0.0000   YZ=              0.0000

 Normal termination of Gaussian 16 at Tue Aug  2 14:59:30 2022.
