 Gaussian 16, Revision C.01,
 Gaussian 16:  ES64L-G16RevC.01  3-Jul-2019

 ---------------------------------------------------------------
 #n M062X/6-311++G(d,p) TD(NStates=1) EmpiricalDispersion=GD3 SP
 ---------------------------------------------------------------

 -----
 SP_-2
 -----
 Symbolic Z-matrix:
 Charge =  1 Multiplicity = 1

                         Standard orientation:
 ---------------------------------------------------------------------
 Center     Atomic      Atomic             Coordinates (Angstroms)
 Number     Number       Type             X           Y           Z
 ---------------------------------------------------------------------
      1          6           0        0.084814    2.832650    0.000000
      2          6           0       -1.036196    3.647255    0.000000
      3          6           0       -2.256345    3.028984    0.000000
      4          6           0       -2.352169    1.561784    0.000000
      5          6           0       -0.152940   -2.846386    0.000000
      6          6           0        0.948658   -3.605699    0.000000
      7          6           0        2.216765   -3.002978    0.000000
      8          6           0        2.346146   -1.610506    0.000000
      9          6           0        1.290654    0.668607    0.000000
     10          6           0       -1.247868   -0.700290    0.000000
     11          6           0        0.000000    1.375516    0.000000
     12          6           0       -1.233193    0.756408    0.000000
     13          6           0        1.239575   -0.826976    0.000000
     14          6           0       -0.065662   -1.427029    0.000000
     15          1           0        1.078819    3.266574    0.000000
     16          1           0       -0.943969    4.722286    0.000000
     17          1           0       -3.175941    3.600419    0.000000
     18          1           0       -3.345467    1.127999    0.000000
     19          1           0       -2.196911   -1.219722    0.000000
     20          1           0       -1.142321   -3.288037    0.000000
     21          1           0        0.871866   -4.682157    0.000000
     22          1           0        3.103278   -3.621989    0.000000
     23          1           0        3.336064   -1.168374    0.000000
     24          1           0        1.860577    1.077477    0.859585
     25          1           0        1.860577    1.077477   -0.859585
 ---------------------------------------------------------------------

 SCF Done:  E(RM062X) =  -539.742387767     A.U. after   16 cycles

 Excitation energies and oscillator strengths:

 Excited State   1:      Singlet-A'     2.5243 eV  491.15 nm  f=0.0160  <S**2>=0.000
      47 -> 48         0.70328
 This state for optimization and/or second-order correction.
 Total Energy, E(TD-HF/TD-DFT) =  -539.649619676
 Copying the excited state density for this state as the 1-particle RhoCI density.

 The electronic state is 1-A'.
 Alpha  occ. eigenvalues --  -10.77518 -10.74094 -10.72922 -10.72673 -10.72431
 Alpha  occ. eigenvalues --  -10.71809 -10.71766 -10.71117 -10.70785 -10.70505
 Alpha  occ. eigenvalues --  -10.69861 -10.69561 -10.69480 -10.69329  -1.16640
 Alpha  occ. eigenvalues --   -1.12500  -1.06913  -1.05982  -1.01300  -1.00603
 Alpha  occ. eigenvalues --   -0.95374  -0.90958  -0.86462  -0.85858  -0.83811
 Alpha  occ. eigenvalues --   -0.78176  -0.76260  -0.74286  -0.69992  -0.69435
 Alpha  occ. eigenvalues --   -0.68109  -0.67973  -0.67918  -0.65603  -0.64319
 Alpha  occ. eigenvalues --   -0.62440  -0.61295  -0.60698  -0.59362  -0.58997
 Alpha  occ. eigenvalues --   -0.56716  -0.55562  -0.54030  -0.52423  -0.47938
 Alpha  occ. eigenvalues --   -0.46154  -0.43191
 Alpha virt. eigenvalues --   -0.26127  -0.14742  -0.14019  -0.12761  -0.11210
 Alpha virt. eigenvalues --   -0.10110  -0.09292  -0.07938  -0.07845  -0.07494
 Alpha virt. eigenvalues --   -0.07233  -0.07117  -0.05655  -0.05561  -0.05368

 Mulliken charges:
               1
     1  C    0.185999
     2  C   -0.395163
     3  C   -0.453449
     4  C   -0.105470
     5  C    0.084683
     6  C   -0.411462
     7  C   -0.410138
     8  C    0.007733
     9  C   -0.359796
    10  C    0.076071
    11  C   -0.587872
    12  C    0.593663
    13  C   -0.635480
    14  C    0.786475
    15  H    0.234703
    16  H    0.250584
    17  H    0.243783
    18  H    0.221297
    19  H    0.189797
    20  H    0.222759
    21  H    0.253549
    22  H    0.262750
    23  H    0.240553
    24  H    0.252215
    25  H    0.252215
 Sum of Mulliken charges =   1.00000

 Dipole moment (field-independent basis, Debye):
    X=              0.5744    Y=             -1.4384    Z=             -0.0000  Tot=              1.5488
 Quadrupole moment (field-independent basis, Debye-Ang):
   XX=            -51.5637   YY=            -35.5910   ZZ=            -84.1396
   XY=             -9.9394   XZ=              0.0000   YZ=              0.0000

 Normal termination of Gaussian 16 at Tue Aug  2 15:16:20 2022.
