 Gaussian 16, Revision C.01,
 Gaussian 16:  ES64L-G16RevC.01  3-Jul-2019

 ---------------------------------------------------------------
 #n M062X/6-311++G(d,p) TD(NStates=1) EmpiricalDispersion=GD3 SP
 ---------------------------------------------------------------

 -----
 SP_-6
 -----
 Symbolic Z-matrix:
 Charge =  1 Multiplicity = 1

                         Standard orientation:
 ---------------------------------------------------------------------
 Center     Atomic      Atomic             Coordinates (Angstroms)
 Number     Number       Type             X           Y           Z
 ---------------------------------------------------------------------
      1          6           0        0.234963    2.812997    0.000000
      2          6           0       -0.753938    3.776574    0.000000
      3          6           0       -1.986636    3.272353    0.000000
      4          6           0       -2.229940    1.687622    0.000000
      5          6           0       -0.332066   -2.858450    0.000000
      6          6           0        0.591351   -3.634673    0.000000
      7          6           0        1.937331   -3.121690    0.000000
      8          6           0        2.266283   -1.741613    0.000000
      9          6           0        1.315792    0.621170    0.000000
     10          6           0       -1.238957   -0.743353    0.000000
     11          6           0       -0.000000    1.266480    0.000000
     12          6           0       -1.236485    0.792150    0.000000
     13          6           0        1.321459   -0.918087    0.000000
     14          6           0       -0.089047   -1.411342    0.000000
     15          1           0        1.294787    3.085075    0.000000
     16          1           0       -0.536539    4.833692    0.000000
     17          1           0       -2.880113    3.890701    0.000000
     18          1           0       -3.289049    1.415635    0.000000
     19          1           0       -2.189340   -1.273801    0.000000
     20          1           0       -1.387809   -3.138555    0.000000
     21          1           0        0.462160   -4.703019    0.000000
     22          1           0        2.749197   -3.842989    0.000000
     23          1           0        3.322596   -1.461066    0.000000
     24          1           0        1.826722    1.196747    0.859585
     25          1           0        1.826722    1.196747   -0.859585
 ---------------------------------------------------------------------

 SCF Done:  E(RM062X) =  -539.590775108     A.U. after   16 cycles

 Excitation energies and oscillator strengths:

 Excited State   1:      Singlet-A'     1.7158 eV  722.60 nm  f=0.0228  <S**2>=0.000
      47 -> 48         0.70204
 This state for optimization and/or second-order correction.
 Total Energy, E(TD-HF/TD-DFT) =  -539.527719946
 Copying the excited state density for this state as the 1-particle RhoCI density.

 The electronic state is 1-A'.
 Alpha  occ. eigenvalues --  -10.76420 -10.76086 -10.75521 -10.73304 -10.72182
 Alpha  occ. eigenvalues --  -10.71663 -10.71498 -10.71328 -10.70386 -10.69862
 Alpha  occ. eigenvalues --  -10.69520 -10.69072 -10.68892 -10.67428  -1.18024
 Alpha  occ. eigenvalues --   -1.12599  -1.08444  -1.06592  -1.01594  -1.01190
 Alpha  occ. eigenvalues --   -0.94643  -0.89889  -0.86472  -0.85624  -0.83523
 Alpha  occ. eigenvalues --   -0.77155  -0.76960  -0.74202  -0.71219  -0.69877
 Alpha  occ. eigenvalues --   -0.68289  -0.67297  -0.66782  -0.66131  -0.64034
 Alpha  occ. eigenvalues --   -0.62028  -0.61997  -0.61085  -0.57672  -0.56869
 Alpha  occ. eigenvalues --   -0.55799  -0.55565  -0.52314  -0.51843  -0.51338
 Alpha  occ. eigenvalues --   -0.46591  -0.39580
 Alpha virt. eigenvalues --   -0.26428  -0.15194  -0.13917  -0.11999  -0.11407
 Alpha virt. eigenvalues --   -0.10270  -0.09629  -0.07782  -0.07595  -0.07516
 Alpha virt. eigenvalues --   -0.07393  -0.06643  -0.05723  -0.05464  -0.05459

 Mulliken charges:
               1
     1  C    0.305738
     2  C   -0.376043
     3  C   -0.351613
     4  C   -0.157986
     5  C    0.059296
     6  C   -0.367989
     7  C   -0.340603
     8  C   -0.137605
     9  C   -0.584628
    10  C   -0.294731
    11  C    0.396071
    12  C    0.325240
    13  C   -0.683101
    14  C    0.546452
    15  H    0.231465
    16  H    0.243623
    17  H    0.236466
    18  H    0.230250
    19  H    0.192049
    20  H    0.221434
    21  H    0.259458
    22  H    0.276054
    23  H    0.246558
    24  H    0.262073
    25  H    0.262073
 Sum of Mulliken charges =   1.00000

 Dipole moment (field-independent basis, Debye):
    X=              1.8640    Y=             -3.6579    Z=             -0.0000  Tot=              4.1054
 Quadrupole moment (field-independent basis, Debye-Ang):
   XX=            -53.4579   YY=            -32.0400   ZZ=            -84.1246
   XY=             -9.0693   XZ=             -0.0000   YZ=             -0.0000

 Normal termination of Gaussian 16 at Tue Aug  2 14:58:23 2022.
