 Gaussian 16, Revision C.01,
 Gaussian 16:  ES64L-G16RevC.01  3-Jul-2019

 ---------------------------------------------------------------
 #n M062X/6-311++G(d,p) TD(NStates=1) EmpiricalDispersion=GD3 SP
 ---------------------------------------------------------------

 ----
 SP_2
 ----
 Symbolic Z-matrix:
 Charge =  1 Multiplicity = 1

                         Standard orientation:
 ---------------------------------------------------------------------
 Center     Atomic      Atomic             Coordinates (Angstroms)
 Number     Number       Type             X           Y           Z
 ---------------------------------------------------------------------
      1          6           0       -2.318661   -1.602050    0.000000
      2          6           0       -2.161365   -2.996791    0.000000
      3          6           0       -0.881706   -3.611948    0.000000
      4          6           0        0.173634   -2.888467    0.000000
      5          6           0        2.306711    1.552177    0.000000
      6          6           0        2.209501    3.077661    0.000000
      7          6           0        1.006431    3.694754    0.000000
      8          6           0       -0.095014    2.860085    0.000000
      9          6           0       -1.289506    0.671532    0.000000
     10          6           0        1.228091   -0.742353    0.000000
     11          6           0       -1.260442   -0.844490    0.000000
     12          6           0        0.071400   -1.443990    0.000000
     13          6           0        0.000000    1.349137    0.000000
     14          6           0        1.216814    0.751002    0.000000
     15          1           0       -3.321925   -1.188088    0.000000
     16          1           0       -3.044405   -3.622406    0.000000
     17          1           0       -0.827985   -4.689834    0.000000
     18          1           0        1.176356   -3.301953    0.000000
     19          1           0        2.185001   -1.246543    0.000000
     20          1           0        3.313283    1.146590    0.000000
     21          1           0        3.142387    3.630209    0.000000
     22          1           0        0.906907    4.768090    0.000000
     23          1           0       -1.102294    3.265805    0.000000
     24          1           0       -1.831325    1.140287    0.859585
     25          1           0       -1.831325    1.140287   -0.859585
 ---------------------------------------------------------------------

 SCF Done:  E(RM062X) =  -539.697336493     A.U. after   16 cycles

 Excitation energies and oscillator strengths:

 Excited State   1:      Singlet-A'     2.1214 eV  584.43 nm  f=0.0133  <S**2>=0.000
      47 -> 48         0.70293
 This state for optimization and/or second-order correction.
 Total Energy, E(TD-HF/TD-DFT) =  -539.619374673
 Copying the excited state density for this state as the 1-particle RhoCI density.

 The electronic state is 1-A'.
 Alpha  occ. eigenvalues --  -10.76975 -10.74694 -10.74293 -10.73233 -10.72077
 Alpha  occ. eigenvalues --  -10.71740 -10.71268 -10.70982 -10.70791 -10.70084
 Alpha  occ. eigenvalues --  -10.69973 -10.69265 -10.68962 -10.68341  -1.17221
 Alpha  occ. eigenvalues --   -1.12568  -1.07075  -1.06618  -1.01419  -1.01137
 Alpha  occ. eigenvalues --   -0.94846  -0.90681  -0.86495  -0.85775  -0.83749
 Alpha  occ. eigenvalues --   -0.77752  -0.76758  -0.74197  -0.70630  -0.69600
 Alpha  occ. eigenvalues --   -0.67861  -0.67839  -0.67490  -0.66435  -0.64236
 Alpha  occ. eigenvalues --   -0.61943  -0.61498  -0.61162  -0.58858  -0.58333
 Alpha  occ. eigenvalues --   -0.56469  -0.55663  -0.52824  -0.52414  -0.49870
 Alpha  occ. eigenvalues --   -0.46300  -0.41424
 Alpha virt. eigenvalues --   -0.26259  -0.14841  -0.13836  -0.12563  -0.11282
 Alpha virt. eigenvalues --   -0.10156  -0.09433  -0.07846  -0.07638  -0.07539
 Alpha virt. eigenvalues --   -0.07281  -0.06970  -0.05673  -0.05520  -0.05443

 Mulliken charges:
               1
     1  C   -0.007338
     2  C   -0.402142
     3  C   -0.398041
     4  C    0.069174
     5  C   -0.148517
     6  C   -0.458785
     7  C   -0.393712
     8  C    0.213786
     9  C   -0.404718
    10  C    0.025750
    11  C   -0.644162
    12  C    0.772397
    13  C   -0.473870
    14  C    0.621548
    15  H    0.242974
    16  H    0.269573
    17  H    0.256699
    18  H    0.226750
    19  H    0.185677
    20  H    0.219284
    21  H    0.239319
    22  H    0.244834
    23  H    0.233358
    24  H    0.255082
    25  H    0.255082
 Sum of Mulliken charges =   1.00000

 Dipole moment (field-independent basis, Debye):
    X=             -1.2984    Y=             -2.6452    Z=             -0.0000  Tot=              2.9467
 Quadrupole moment (field-independent basis, Debye-Ang):
   XX=            -52.0538   YY=            -34.5030   ZZ=            -84.0669
   XY=              9.8563   XZ=              0.0000   YZ=             -0.0000

 Normal termination of Gaussian 16 at Tue Aug  2 15:34:58 2022.
