 Gaussian 16, Revision C.01,
 Gaussian 16:  ES64L-G16RevC.01  3-Jul-2019

 ---------------------------------------------------------------
 #n M062X/6-311++G(d,p) TD(NStates=1) EmpiricalDispersion=GD3 SP
 ---------------------------------------------------------------

 -----
 SP_-6
 -----
 Symbolic Z-matrix:
 Charge =  1 Multiplicity = 1

                         Standard orientation:
 ---------------------------------------------------------------------
 Center     Atomic      Atomic             Coordinates (Angstroms)
 Number     Number       Type             X           Y           Z
 ---------------------------------------------------------------------
      1          6           0       -0.061262   -2.710986    0.000000
      2          6           0        1.052838   -3.546822    0.000000
      3          6           0        2.329937   -2.978079    0.000000
      4          6           0        2.491816   -1.614327    0.000000
      5          6           0        0.114119    2.702467    0.000000
      6          6           0       -1.032802    3.577482    0.000000
      7          6           0       -2.308258    3.049272    0.000000
      8          6           0       -2.458830    1.661932    0.000000
      9          6           0       -1.288722   -0.671969    0.000000
     10          6           0        1.281057    0.634007    0.000000
     11          6           0        0.059454   -1.368523    0.000000
     12          6           0        1.338301   -0.750597    0.000000
     13          6           0       -1.279993    0.780960    0.000000
     14          6           0        0.000000    1.344185    0.000000
     15          1           0       -1.054989   -3.147217    0.000000
     16          1           0        0.915645   -4.621854    0.000000
     17          1           0        3.200736   -3.629303    0.000000
     18          1           0        3.484838   -1.178245    0.000000
     19          1           0        2.170161    1.268975    0.000000
     20          1           0        1.103121    3.146363    0.000000
     21          1           0       -0.862683    4.647133    0.000000
     22          1           0       -3.169364    3.705306    0.000000
     23          1           0       -3.448363    1.217548    0.000000
     24          1           0       -1.882515   -1.031353    0.859585
     25          1           0       -1.882515   -1.031353   -0.859585
 ---------------------------------------------------------------------

 SCF Done:  E(RM062X) =  -539.734994014     A.U. after   16 cycles

 Excitation energies and oscillator strengths:

 Excited State   1:      Singlet-A'     2.6035 eV  476.21 nm  f=0.0189  <S**2>=0.000
      47 -> 48         0.70333
 This state for optimization and/or second-order correction.
 Total Energy, E(TD-HF/TD-DFT) =  -539.639315476
 Copying the excited state density for this state as the 1-particle RhoCI density.

 The electronic state is 1-A'.
 Alpha  occ. eigenvalues --  -10.77785 -10.73625 -10.73290 -10.72779 -10.72595
 Alpha  occ. eigenvalues --  -10.72313 -10.71631 -10.71064 -10.70420 -10.70328
 Alpha  occ. eigenvalues --  -10.70291 -10.69999 -10.69811 -10.69102  -1.16648
 Alpha  occ. eigenvalues --   -1.12382  -1.06811  -1.05948  -1.01196  -1.00560
 Alpha  occ. eigenvalues --   -0.95340  -0.90914  -0.86916  -0.85350  -0.83502
 Alpha  occ. eigenvalues --   -0.78255  -0.76101  -0.74148  -0.70045  -0.69033
 Alpha  occ. eigenvalues --   -0.68345  -0.68100  -0.67794  -0.65335  -0.63687
 Alpha  occ. eigenvalues --   -0.62633  -0.61471  -0.60512  -0.59096  -0.58993
 Alpha  occ. eigenvalues --   -0.56885  -0.55299  -0.54296  -0.52378  -0.47496
 Alpha  occ. eigenvalues --   -0.46131  -0.43491
 Alpha virt. eigenvalues --   -0.26122  -0.14790  -0.14105  -0.12683  -0.11225
 Alpha virt. eigenvalues --   -0.10111  -0.09283  -0.07979  -0.07973  -0.07533
 Alpha virt. eigenvalues --   -0.07217  -0.07171  -0.05706  -0.05583  -0.05357

 Mulliken charges:
               1
     1  C    0.231387
     2  C   -0.351599
     3  C   -0.469590
     4  C   -0.172588
     5  C    0.108878
     6  C   -0.413758
     7  C   -0.435315
     8  C   -0.087105
     9  C   -0.433030
    10  C    0.011648
    11  C   -0.534651
    12  C    0.487316
    13  C   -0.576062
    14  C    0.997434
    15  H    0.243286
    16  H    0.266558
    17  H    0.253637
    18  H    0.235267
    19  H    0.199470
    20  H    0.201698
    21  H    0.249987
    22  H    0.248447
    23  H    0.239701
    24  H    0.249490
    25  H    0.249490
 Sum of Mulliken charges =   1.00000

 Dipole moment (field-independent basis, Debye):
    X=              0.8245    Y=             -1.1609    Z=              0.0000  Tot=              1.4239
 Quadrupole moment (field-independent basis, Debye-Ang):
   XX=            -50.3173   YY=            -36.7388   ZZ=            -84.2431
   XY=            -10.7797   XZ=              0.0000   YZ=              0.0000

 Normal termination of Gaussian 16 at Tue Aug  2 15:02:52 2022.
