 Gaussian 16, Revision C.01,
 Gaussian 16:  ES64L-G16RevC.01  3-Jul-2019

 ----------------------------------------------------------------------
 #n M062X/cc-pvtz TD EmpiricalDispersion=GD3 IRC=(RCFC,maxpoints=40,max
 cycles=20,report=cartesians,StepSize=2) Geom=AllCheck
 ----------------------------------------------------------------------

 Structure from the checkpoint file:  "check_ts6.chk"
 -----
 Title
 -----
 Charge =  1 Multiplicity = 1

 SCF Done:  E(RM062X) =  -539.815794075     A.U. after   14 cycles
 Total Energy, E(TD-HF/TD-DFT) =  -539.712113351
 SCF Done:  E(RM062X) =  -539.815698528     A.U. after   11 cycles
 Total Energy, E(TD-HF/TD-DFT) =  -539.712133264
 SCF Done:  E(RM062X) =  -539.815510641     A.U. after   11 cycles
 Total Energy, E(TD-HF/TD-DFT) =  -539.712162994
 SCF Done:  E(RM062X) =  -539.815275496     A.U. after   11 cycles
 Total Energy, E(TD-HF/TD-DFT) =  -539.712196860
 SCF Done:  E(RM062X) =  -539.815002225     A.U. after   11 cycles
 Total Energy, E(TD-HF/TD-DFT) =  -539.712229885
 SCF Done:  E(RM062X) =  -539.814702746     A.U. after   10 cycles
 Total Energy, E(TD-HF/TD-DFT) =  -539.712257787
 SCF Done:  E(RM062X) =  -539.814392774     A.U. after   11 cycles
 Total Energy, E(TD-HF/TD-DFT) =  -539.712276779
 SCF Done:  E(RM062X) =  -539.814090066     A.U. after   11 cycles
 Total Energy, E(TD-HF/TD-DFT) =  -539.712284734
 SCF Done:  E(RM062X) =  -539.815794075     A.U. after   12 cycles
 Total Energy, E(TD-HF/TD-DFT) =  -539.712113381
 SCF Done:  E(RM062X) =  -539.815698624     A.U. after   11 cycles
 Total Energy, E(TD-HF/TD-DFT) =  -539.712133267
 SCF Done:  E(RM062X) =  -539.815510759     A.U. after   11 cycles
 Total Energy, E(TD-HF/TD-DFT) =  -539.712163000
 SCF Done:  E(RM062X) =  -539.815275521     A.U. after   11 cycles
 Total Energy, E(TD-HF/TD-DFT) =  -539.712196862
 SCF Done:  E(RM062X) =  -539.815002253     A.U. after   11 cycles
 Total Energy, E(TD-HF/TD-DFT) =  -539.712229888
 SCF Done:  E(RM062X) =  -539.814702711     A.U. after   10 cycles
 Total Energy, E(TD-HF/TD-DFT) =  -539.712257789
 SCF Done:  E(RM062X) =  -539.814392794     A.U. after   11 cycles
 Total Energy, E(TD-HF/TD-DFT) =  -539.712276781
 SCF Done:  E(RM062X) =  -539.814089904     A.U. after   11 cycles

 Excitation energies and oscillator strengths:

 Excited state symmetry could not be determined.
 Excited State   1:      Singlet-?Sym    2.7703 eV  447.55 nm  f=0.0236  <S**2>=0.000
      47 -> 48         0.70370
 This state for optimization and/or second-order correction.
 Total Energy, E(TD-HF/TD-DFT) =  -539.712284734
 Copying the excited state density for this state as the 1-particle RhoCI density.

 Excited state symmetry could not be determined.
 Excited State   2:      Singlet-?Sym    3.3076 eV  374.84 nm  f=0.0120  <S**2>=0.000
      45 -> 48        -0.63089
      46 -> 48        -0.30631

 Excited state symmetry could not be determined.
 Excited State   3:      Singlet-?Sym    3.4864 eV  355.62 nm  f=0.5398  <S**2>=0.000
      45 -> 48         0.30864
      46 -> 48        -0.62648

                          Input orientation:
 ---------------------------------------------------------------------
 Center     Atomic      Atomic             Coordinates (Angstroms)
 Number     Number       Type             X           Y           Z
 ---------------------------------------------------------------------
      1          6           0        2.480799    1.369109   -0.000000
      2          6           0        3.685910    0.673308   -0.000001
      3          6           0        3.679774   -0.718550    0.000000
      4          6           0        2.478981   -1.408210    0.000001
      5          6           0       -2.447630   -1.390015   -0.000000
      6          6           0       -3.689239   -0.693500   -0.000001
      7          6           0       -3.718849    0.687498   -0.000000
      8          6           0       -2.508234    1.367881    0.000001
      9          6           0       -0.008705    1.466368    0.000000
     10          6           0        0.024487   -1.420787    0.000000
     11          6           0        1.266061    0.693413   -0.000000
     12          6           0        1.247069   -0.723034   -0.000001
     13          6           0       -1.258433    0.677887    0.000001
     14          6           0       -1.227165   -0.720715    0.000001
     15          1           0        2.485993    2.452100   -0.000000
     16          1           0        4.621195    1.213951   -0.000002
     17          1           0        4.612365   -1.264498    0.000000
     18          1           0        2.474623   -2.490360    0.000001
     19          1           0        0.022566   -2.501799    0.000001
     20          1           0       -2.460037   -2.472759   -0.000000
     21          1           0       -4.606861   -1.265195   -0.000001
     22          1           0       -4.654463    1.225658   -0.000001
     23          1           0       -2.494221    2.451163    0.000001
     24          1           0       -0.032160    2.155383   -0.860670
     25          1           0       -0.032160    2.155383    0.860670
 ---------------------------------------------------------------------

 Alpha  occ. eigenvalues --  -10.77522 -10.73422 -10.72840 -10.72494 -10.72020
 Alpha  occ. eigenvalues --  -10.71502 -10.71445 -10.70957 -10.70855 -10.70397
 Alpha  occ. eigenvalues --  -10.69966 -10.69715 -10.69692 -10.69376  -1.16261
 Alpha  occ. eigenvalues --   -1.12274  -1.06775  -1.05569  -1.01152  -1.00073
 Alpha  occ. eigenvalues --   -0.95574  -0.90863  -0.86218  -0.85718  -0.83633
 Alpha  occ. eigenvalues --   -0.78216  -0.75795  -0.74180  -0.69434  -0.69086
 Alpha  occ. eigenvalues --   -0.68234  -0.68020  -0.67932  -0.64678  -0.64021
 Alpha  occ. eigenvalues --   -0.62678  -0.61578  -0.60159  -0.59476  -0.58921
 Alpha  occ. eigenvalues --   -0.56693  -0.55023  -0.54490  -0.52419  -0.46774
 Alpha  occ. eigenvalues --   -0.46034  -0.44217
 Alpha virt. eigenvalues --   -0.25975  -0.14399  -0.13952  -0.12484  -0.06833
 Alpha virt. eigenvalues --   -0.05519  -0.05352  -0.04091  -0.02659  -0.01625
 Alpha virt. eigenvalues --   -0.00189   0.00355   0.00589   0.01905   0.02332

 Mulliken charges:
               1
     1  C   -0.099536
     2  C   -0.024739
     3  C   -0.123590
     4  C   -0.043790
     5  C   -0.080604
     6  C   -0.117471
     7  C   -0.035613
     8  C   -0.099281
     9  C   -0.308808
    10  C   -0.066855
    11  C    0.108438
    12  C    0.048610
    13  C    0.095379
    14  C    0.062584
    15  H    0.138109
    16  H    0.147574
    17  H    0.142916
    18  H    0.132950
    19  H    0.160041
    20  H    0.129695
    21  H    0.142799
    22  H    0.148435
    23  H    0.136210
    24  H    0.203273
    25  H    0.203273
 Sum of Mulliken charges =   1.00000

 Dipole moment (field-independent basis, Debye):
    X=              0.5606    Y=             -0.1543    Z=             -0.0000  Tot=              0.5815
 Quadrupole moment (field-independent basis, Debye-Ang):
   XX=            -30.9041   YY=            -56.4231   ZZ=            -83.3687
   XY=             -0.2574   XZ=              0.0000   YZ=             -0.0000

  Exact polarizability:       0.000       0.000       0.000       0.000       0.000       0.000
 Approx polarizability:     336.301       0.895     228.478      -0.000      -0.000     102.927

 Normal termination of Gaussian 16 at Wed Jul 20 16:29:17 2022.
