============================== echo of input deck ==============================
echo

start molecule

title "Title"
charge 1

geometry units angstroms print xyz autosym
   C        3.65173       -0.78685       -0.00001
   C        2.44247       -1.43535       -0.00001
   C        1.23974       -0.68798       -0.00000
   C        1.27330        0.73074        0.00001
   C        2.50603        1.36411        0.00001
   C        3.67625        0.61507       -0.00000
   C        0.00000       -1.34275        0.00001
   C        0.00000        1.51499        0.00002
   C       -1.27330        0.73074        0.00000
   C       -1.23974       -0.68798        0.00002
   C       -2.44247       -1.43535        0.00001
   H       -2.38954       -2.51900        0.00002
   C       -3.65173       -0.78685       -0.00001
   C       -3.67625        0.61507       -0.00003
   C       -2.50603        1.36411       -0.00002
   H        0.00000       -2.43220        0.00001
   H        4.57869       -1.34594       -0.00002
   H        2.38954       -2.51900       -0.00002
   H        2.55762        2.44760        0.00002
   H        4.63171        1.12870        0.00000
   H       -0.00000        2.18953        0.86808
   H       -4.57869       -1.34594       -0.00001
   H       -4.63171        1.12870       -0.00005
   H       -2.55762        2.44760       -0.00004
   H        0.00000        2.18959       -0.86798
end

basis
  * library 6-31G*
end

dft
  xc b3lyp
  mult 1
  vectors output n2.movecs
end
task dft
dplot
  vectors n2.movecs
   LimitXYZ
  -6.0 6.0 50
  -6.0 6.0 50
  -6.0 6.0 50
  spin total
  gaussian
  orbitals; 1; 47
  output 2orbdensity.cube
end

task dplot

================================================================================

 Output coordinates in angstroms (scale by  1.889725989 to convert to a.u.)

  No.       Tag          Charge          X              Y              Z
 ---- ---------------- ---------- -------------- -------------- --------------
    1 C                    6.0000    -3.65173000     0.00000000    -0.78684958
    2 C                    6.0000    -2.44247000     0.00000000    -1.43534958
    3 C                    6.0000    -1.23974000     0.00000000    -0.68797958
    4 C                    6.0000    -1.27330000     0.00000000     0.73074042
    5 C                    6.0000    -2.50603000     0.00000000     1.36411042
    6 C                    6.0000    -3.67625000     0.00000000     0.61507042
    7 C                    6.0000     0.00000000     0.00000000    -1.34274958
    8 C                    6.0000     0.00000000     0.00000000     1.51499042
    9 C                    6.0000     1.27330000     0.00000000     0.73074042
   10 C                    6.0000     1.23974000     0.00000000    -0.68797958
   11 C                    6.0000     2.44247000     0.00000000    -1.43534958
   12 H                    1.0000     2.38954000     0.00000000    -2.51899958
   13 C                    6.0000     3.65173000     0.00000000    -0.78684958
   14 C                    6.0000     3.67625000     0.00000000     0.61507042
   15 C                    6.0000     2.50603000     0.00000000     1.36411042
   16 H                    1.0000     0.00000000     0.00000000    -2.43219958
   17 H                    1.0000    -4.57869000     0.00000000    -1.34593958
   18 H                    1.0000    -2.38954000     0.00000000    -2.51899958
   19 H                    1.0000    -2.55762000     0.00000000     2.44760042
   20 H                    1.0000    -4.63171000     0.00000000     1.12870042
   21 H                    1.0000     0.00000000     0.86803000     2.18956042
   22 H                    1.0000     4.57869000     0.00000000    -1.34593958
   23 H                    1.0000     4.63171000     0.00000000     1.12870042
   24 H                    1.0000     2.55762000     0.00000000     2.44760042
   25 H                    1.0000     0.00000000    -0.86803000     2.18956042

         Total DFT energy =     -539.888710784565

                       DFT Final Molecular Orbital Analysis
                       ------------------------------------

 Vector    1  Occ=2.000000D+00  E=-1.040109D+01  Symmetry=a1

 Vector  153  Occ=0.000000D+00  E= 1.342204D+00  Symmetry=b2

 Vector  154  Occ=0.000000D+00  E= 1.345337D+00  Symmetry=b1

 Vector  155  Occ=0.000000D+00  E= 1.366794D+00  Symmetry=b1

 Vector  156  Occ=0.000000D+00  E= 1.434696D+00  Symmetry=a1

 Vector  157  Occ=0.000000D+00  E= 1.569975D+00  Symmetry=b1

 Vector  158  Occ=0.000000D+00  E= 1.572945D+00  Symmetry=a1

 Vector  159  Occ=0.000000D+00  E= 1.587965D+00  Symmetry=b2

 Vector  160  Occ=0.000000D+00  E= 1.618089D+00  Symmetry=a1

 Vector  161  Occ=0.000000D+00  E= 1.652274D+00  Symmetry=b1

 Vector  162  Occ=0.000000D+00  E= 1.664135D+00  Symmetry=a2

 Vector  163  Occ=0.000000D+00  E= 1.682591D+00  Symmetry=a1

 Vector  164  Occ=0.000000D+00  E= 1.701608D+00  Symmetry=a1

 Vector  165  Occ=0.000000D+00  E= 1.724166D+00  Symmetry=b1

 Vector  166  Occ=0.000000D+00  E= 1.732052D+00  Symmetry=b2

 Vector  167  Occ=0.000000D+00  E= 1.748826D+00  Symmetry=a1

 Vector  168  Occ=0.000000D+00  E= 1.764631D+00  Symmetry=b1

 Vector  169  Occ=0.000000D+00  E= 1.780227D+00  Symmetry=b1

 Vector  170  Occ=0.000000D+00  E= 1.780363D+00  Symmetry=a1

 Vector  171  Occ=0.000000D+00  E= 1.786455D+00  Symmetry=a1

 Vector  172  Occ=0.000000D+00  E= 1.795276D+00  Symmetry=b1

 Vector  173  Occ=0.000000D+00  E= 1.844129D+00  Symmetry=a1

 Vector  174  Occ=0.000000D+00  E= 1.866811D+00  Symmetry=b1

 Vector  175  Occ=0.000000D+00  E= 1.891236D+00  Symmetry=a2

 Vector  176  Occ=0.000000D+00  E= 1.936496D+00  Symmetry=a1

 Vector  177  Occ=0.000000D+00  E= 1.943710D+00  Symmetry=b1

 Vector  178  Occ=0.000000D+00  E= 1.950530D+00  Symmetry=b2

 Vector  179  Occ=0.000000D+00  E= 1.975193D+00  Symmetry=b1

 Vector  180  Occ=0.000000D+00  E= 1.981717D+00  Symmetry=a1

 Vector  181  Occ=0.000000D+00  E= 2.011352D+00  Symmetry=a1

 Vector  182  Occ=0.000000D+00  E= 2.019053D+00  Symmetry=b2

 Vector  183  Occ=0.000000D+00  E= 2.051724D+00  Symmetry=b1

 Vector  184  Occ=0.000000D+00  E= 2.065362D+00  Symmetry=a2

 Vector  185  Occ=0.000000D+00  E= 2.088832D+00  Symmetry=a1

 Vector  186  Occ=0.000000D+00  E= 2.091831D+00  Symmetry=b2

 Vector  187  Occ=0.000000D+00  E= 2.111159D+00  Symmetry=a2

 Vector  188  Occ=0.000000D+00  E= 2.126295D+00  Symmetry=a2

 Vector  189  Occ=0.000000D+00  E= 2.133932D+00  Symmetry=b2

 Vector  190  Occ=0.000000D+00  E= 2.152301D+00  Symmetry=a2

 Vector  191  Occ=0.000000D+00  E= 2.158093D+00  Symmetry=a1

 Vector  192  Occ=0.000000D+00  E= 2.195094D+00  Symmetry=b2

 Vector  193  Occ=0.000000D+00  E= 2.195983D+00  Symmetry=b1

 Vector  194  Occ=0.000000D+00  E= 2.210930D+00  Symmetry=a1

 Vector  195  Occ=0.000000D+00  E= 2.280762D+00  Symmetry=b2

 Vector  196  Occ=0.000000D+00  E= 2.297868D+00  Symmetry=b1

 Vector  197  Occ=0.000000D+00  E= 2.397299D+00  Symmetry=a2

 Vector  198  Occ=0.000000D+00  E= 2.399163D+00  Symmetry=a1

 Vector  199  Occ=0.000000D+00  E= 2.472596D+00  Symmetry=b1

 Vector  200  Occ=0.000000D+00  E= 2.489293D+00  Symmetry=a1

 Vector  201  Occ=0.000000D+00  E= 2.503554D+00  Symmetry=b1

 Vector  202  Occ=0.000000D+00  E= 2.507898D+00  Symmetry=a2

 Vector  203  Occ=0.000000D+00  E= 2.516617D+00  Symmetry=b2

 Vector  204  Occ=0.000000D+00  E= 2.532897D+00  Symmetry=b1

 Vector  205  Occ=0.000000D+00  E= 2.573866D+00  Symmetry=a1

 Vector  206  Occ=0.000000D+00  E= 2.588458D+00  Symmetry=b1

 Vector  207  Occ=0.000000D+00  E= 2.595597D+00  Symmetry=a1

 Vector  208  Occ=0.000000D+00  E= 2.644550D+00  Symmetry=a1

 Vector  209  Occ=0.000000D+00  E= 2.660175D+00  Symmetry=b1

 Vector  210  Occ=0.000000D+00  E= 2.687429D+00  Symmetry=a1

 Vector  211  Occ=0.000000D+00  E= 2.712447D+00  Symmetry=a1

 Vector  212  Occ=0.000000D+00  E= 2.730464D+00  Symmetry=b1

 Vector  213  Occ=0.000000D+00  E= 2.788259D+00  Symmetry=b1

 Vector  214  Occ=0.000000D+00  E= 2.880637D+00  Symmetry=a1

 Vector  215  Occ=0.000000D+00  E= 2.927234D+00  Symmetry=b1

 Vector  216  Occ=0.000000D+00  E= 3.134144D+00  Symmetry=a1

 Vector  217  Occ=0.000000D+00  E= 3.288613D+00  Symmetry=a1

 Vector  218  Occ=0.000000D+00  E= 3.302614D+00  Symmetry=b1

 Vector  219  Occ=0.000000D+00  E= 3.917083D+00  Symmetry=a1

 Vector  220  Occ=0.000000D+00  E= 3.935366D+00  Symmetry=b1

 Vector  221  Occ=0.000000D+00  E= 3.940575D+00  Symmetry=a1

 Vector  222  Occ=0.000000D+00  E= 3.958770D+00  Symmetry=b1

 Vector  223  Occ=0.000000D+00  E= 3.971849D+00  Symmetry=a1

 Vector  224  Occ=0.000000D+00  E= 3.974862D+00  Symmetry=b1

 Vector  225  Occ=0.000000D+00  E= 4.014817D+00  Symmetry=a1

 Vector  226  Occ=0.000000D+00  E= 4.104024D+00  Symmetry=a1

 Vector  227  Occ=0.000000D+00  E= 4.172978D+00  Symmetry=b1

 Vector  228  Occ=0.000000D+00  E= 4.191012D+00  Symmetry=b1

 Vector  229  Occ=0.000000D+00  E= 4.277454D+00  Symmetry=a1

 Vector  230  Occ=0.000000D+00  E= 4.301341D+00  Symmetry=a1

 Vector  231  Occ=0.000000D+00  E= 4.504132D+00  Symmetry=b1

 Vector  232  Occ=0.000000D+00  E= 4.689101D+00  Symmetry=a1

     Multipole analysis of the density
     ---------------------------------

     L   x y z        total         alpha         beta         nuclear
     -   - - -        -----         -----         ----         -------
     0   0 0 0      1.000000    -47.000000    -47.000000     95.000000

     1   1 0 0     -0.000000     -0.000000     -0.000000     -0.000000
     1   0 1 0      0.000000      0.000000      0.000000      0.000000
     1   0 0 1     -0.014394     -0.007197     -0.007197     -0.000000

     2   2 0 0    -22.835813  -1111.993868  -1111.993868   2201.151924
     2   1 1 0      0.000000      0.000000      0.000000      0.000000
     2   1 0 1     -0.000000     -0.000000     -0.000000     -0.000000
     2   0 2 0    -60.436217    -32.908820    -32.908820      5.381423
     2   0 1 1     -0.000000     -0.000000     -0.000000      0.000000

 Total times  cpu:       68.1s     wall:       66.0s
