 Gaussian 09, Revision D.01,
 Gaussian 09:  ES64L-G09RevD.01 24-Apr-2013

 -----------------------------------------------
 #n M062X/6-31G(2df,p) TD=(nstates=5,root=2) Opt
 -----------------------------------------------

 -----
 Title
 -----
 Symbolic Z-matrix:
 Charge =  1 Multiplicity = 1

 SCF Done:  E(RM062X) =  -539.680757014     A.U. after   14 cycles
 SCF Done:  E(RM062X) =  -539.678265499     A.U. after   12 cycles
 SCF Done:  E(RM062X) =  -539.677654049     A.U. after   11 cycles
 SCF Done:  E(RM062X) =  -539.677189037     A.U. after   10 cycles
 SCF Done:  E(RM062X) =  -539.677089183     A.U. after    9 cycles
 SCF Done:  E(RM062X) =  -539.677069200     A.U. after    8 cycles

 Excitation energies and oscillator strengths:

 Excited State   1:      Singlet-A      3.0876 eV  401.56 nm  f=0.0346  <S**2>=0.000
      47 -> 48        -0.70282

 Excited State   2:      Singlet-A      3.2831 eV  377.65 nm  f=0.2665  <S**2>=0.000
      45 -> 48        -0.24484
      46 -> 48         0.65580
 This state for optimization and/or second-order correction.
 Total Energy, E(TD-HF/TD-KS) =  -539.556418161
 Copying the excited state density for this state as the 1-particle RhoCI density.

 Excited State   3:      Singlet-A      3.5874 eV  345.61 nm  f=0.2875  <S**2>=0.000
      45 -> 48         0.65701
      46 -> 48         0.24335

 Excited State   4:      Singlet-A      4.8375 eV  256.30 nm  f=0.0000  <S**2>=0.000
      43 -> 48         0.68488

 Excited State   5:      Singlet-A      4.8911 eV  253.49 nm  f=0.0003  <S**2>=0.000
      37 -> 48         0.10763
      42 -> 48        -0.68593

 Optimization completed.
    -- Stationary point found.

                         Standard orientation:
 ---------------------------------------------------------------------
 Center     Atomic      Atomic             Coordinates (Angstroms)
 Number     Number       Type             X           Y           Z
 ---------------------------------------------------------------------
      1          6           0        3.655126   -0.760472   -0.000208
      2          6           0        2.448324   -1.434162    0.000093
      3          6           0        1.234691   -0.729257    0.000206
      4          6           0        1.267315    0.714614    0.000127
      5          6           0        2.496664    1.369877   -0.000267
      6          6           0        3.679450    0.656689   -0.000384
      7          6           0        0.000000   -1.419399    0.000314
      8          6           0        0.000000    1.533729    0.000588
      9          6           0       -1.267315    0.714614    0.000128
     10          6           0       -1.234691   -0.729257    0.000200
     11          6           0       -2.448324   -1.434162    0.000082
     12          1           0       -2.426441   -2.518238    0.000166
     13          6           0       -3.655126   -0.760472   -0.000219
     14          6           0       -3.679450    0.656689   -0.000390
     15          6           0       -2.496664    1.369877   -0.000266
     16          1           0        0.000000   -2.503913    0.000365
     17          1           0        4.587766   -1.312182   -0.000351
     18          1           0        2.426441   -2.518238    0.000181
     19          1           0        2.516615    2.454878   -0.000370
     20          1           0        4.630791    1.175839   -0.000587
     21          1           0        0.000000    2.204475    0.871866
     22          1           0       -4.587766   -1.312182   -0.000367
     23          1           0       -4.630791    1.175839   -0.000591
     24          1           0       -2.516615    2.454878   -0.000363
     25          1           0        0.000000    2.205401   -0.869972
 ---------------------------------------------------------------------

 The electronic state is 1-A.
 Alpha  occ. eigenvalues --  -10.77308 -10.73887 -10.73887 -10.72745 -10.72744
 Alpha  occ. eigenvalues --  -10.71751 -10.71732 -10.71732 -10.71516 -10.71516
 Alpha  occ. eigenvalues --  -10.70213 -10.70212 -10.70106 -10.70106  -1.14991
 Alpha  occ. eigenvalues --   -1.11392  -1.05941  -1.04791  -1.00723  -0.98915
 Alpha  occ. eigenvalues --   -0.95449  -0.89638  -0.85390  -0.85101  -0.82495
 Alpha  occ. eigenvalues --   -0.77859  -0.74840  -0.73324  -0.68823  -0.68272
 Alpha  occ. eigenvalues --   -0.67511  -0.67320  -0.66880  -0.64226  -0.63565
 Alpha  occ. eigenvalues --   -0.61665  -0.60820  -0.59603  -0.58922  -0.58566
 Alpha  occ. eigenvalues --   -0.55688  -0.54129  -0.53936  -0.51662  -0.46596
 Alpha  occ. eigenvalues --   -0.44574  -0.44566
 Alpha virt. eigenvalues --   -0.25119  -0.13590  -0.12793  -0.10949  -0.05937
 Alpha virt. eigenvalues --    0.00369   0.00936   0.01247   0.02851   0.03842
 Alpha virt. eigenvalues --    0.05333   0.05449   0.06625   0.07744   0.07929

 Mulliken charges:
               1
     1  C   -0.148338
     2  C   -0.159796
     3  C    0.194157
     4  C    0.148882
     5  C   -0.172054
     6  C   -0.100269
     7  C   -0.181120
     8  C   -0.454917
     9  C    0.148882
    10  C    0.194157
    11  C   -0.159796
    12  H    0.177657
    13  C   -0.148338
    14  C   -0.100269
    15  C   -0.172054
    16  H    0.211356
    17  H    0.185901
    18  H    0.177657
    19  H    0.171985
    20  H    0.195333
    21  H    0.218917
    22  H    0.185901
    23  H    0.195333
    24  H    0.171985
    25  H    0.218848
 Sum of Mulliken charges =   1.00000

 Dipole moment (field-independent basis, Debye):
    X=              0.0000    Y=             -0.1038    Z=              0.0003  Tot=              0.1038
 Quadrupole moment (field-independent basis, Debye-Ang):
   XX=            -30.3722   YY=            -55.4013   ZZ=            -81.7952
   XY=              0.0000   XZ=              0.0001   YZ=             -0.0007

 Normal termination of Gaussian 09 at Thu Aug  5 17:50:24 2021.
