 Gaussian 09, Revision D.01,
 Gaussian 09:  ES64L-G09RevD.01 24-Apr-2013

 -----------------------------------------------------------------
 #n M062X/6-31G(2df,p) TD=(nstates=5,root=1) Symmetry=(PG=C2v) Opt
 -----------------------------------------------------------------

 -----
 Title
 -----
 Symbolic Z-matrix:
 Charge =  1 Multiplicity = 1

 SCF Done:  E(RM062X) =  -539.680757014     A.U. after   14 cycles
 SCF Done:  E(RM062X) =  -539.675149985     A.U. after   13 cycles
 SCF Done:  E(RM062X) =  -539.673989626     A.U. after   12 cycles
 SCF Done:  E(RM062X) =  -539.673848348     A.U. after    9 cycles

 Excitation energies and oscillator strengths:

 Excited State   1:      Singlet-A      2.8320 eV  437.80 nm  f=0.0292  <S**2>=0.000
      47 -> 48         0.70431
 This state for optimization and/or second-order correction.
 Total Energy, E(TD-HF/TD-KS) =  -539.569773979
 Copying the excited state density for this state as the 1-particle RhoCI density.

 Excited State   2:      Singlet-A      3.2624 eV  380.03 nm  f=0.0022  <S**2>=0.000
      45 -> 48         0.62730
      46 -> 48        -0.31501

 Excited State   3:      Singlet-A      3.4980 eV  354.45 nm  f=0.5525  <S**2>=0.000
      45 -> 48         0.31699
      46 -> 48         0.62324

 Excited State   4:      Singlet-A      4.7722 eV  259.80 nm  f=0.0000  <S**2>=0.000
      43 -> 48         0.68492

 Excited State   5:      Singlet-A      4.8806 eV  254.04 nm  f=0.0003  <S**2>=0.000
      37 -> 48         0.10066
      42 -> 48        -0.68637

 Optimization completed.
    -- Stationary point found.

                         Standard orientation:
 ---------------------------------------------------------------------
 Center     Atomic      Atomic             Coordinates (Angstroms)
 Number     Number       Type             X           Y           Z
 ---------------------------------------------------------------------
      1          6           0        3.688986   -0.715255   -0.000009
      2          6           0        2.466476   -1.408959   -0.000004
      3          6           0        1.239075   -0.731813    0.000007
      4          6           0        1.264440    0.677450    0.000008
      5          6           0        2.496372    1.361857    0.000003
      6          6           0        3.707149    0.672889   -0.000006
      7          6           0        0.000000   -1.430267    0.000013
      8          6           0        0.000000    1.456186    0.000017
      9          6           0       -1.264440    0.677450    0.000001
     10          6           0       -1.239075   -0.731813    0.000006
     11          6           0       -2.466476   -1.408959    0.000002
     12          1           0       -2.469795   -2.494391    0.000007
     13          6           0       -3.688986   -0.715255   -0.000009
     14          6           0       -3.707149    0.672889   -0.000018
     15          6           0       -2.496372    1.361857   -0.000013
     16          1           0        0.000000   -2.514065    0.000016
     17          1           0        4.616296   -1.275852   -0.000015
     18          1           0        2.469795   -2.494391   -0.000010
     19          1           0        2.490989    2.447850    0.000009
     20          1           0        4.644567    1.213938   -0.000009
     21          1           0       -0.000002    2.150681    0.861657
     22          1           0       -4.616296   -1.275852   -0.000012
     23          1           0       -4.644567    1.213938   -0.000029
     24          1           0       -2.490989    2.447850   -0.000018
     25          1           0        0.000002    2.150729   -0.861582
 ---------------------------------------------------------------------

 The electronic state is 1-A.
 Alpha  occ. eigenvalues --  -10.78024 -10.73503 -10.73503 -10.72695 -10.72694
 Alpha  occ. eigenvalues --  -10.71762 -10.71762 -10.71481 -10.71481 -10.71386
 Alpha  occ. eigenvalues --  -10.70381 -10.70381 -10.70091 -10.70091  -1.15528
 Alpha  occ. eigenvalues --   -1.11545  -1.06071  -1.04907  -1.00480  -0.99357
 Alpha  occ. eigenvalues --   -0.94995  -0.90223  -0.85553  -0.85064  -0.83004
 Alpha  occ. eigenvalues --   -0.77641  -0.75040  -0.73493  -0.68709  -0.68502
 Alpha  occ. eigenvalues --   -0.67662  -0.67415  -0.67236  -0.63818  -0.63388
 Alpha  occ. eigenvalues --   -0.62106  -0.60998  -0.59371  -0.59030  -0.58278
 Alpha  occ. eigenvalues --   -0.56036  -0.54345  -0.53913  -0.51805  -0.45957
 Alpha  occ. eigenvalues --   -0.45392  -0.43876
 Alpha virt. eigenvalues --   -0.25364  -0.13211  -0.13051  -0.11521  -0.05835
 Alpha virt. eigenvalues --    0.00507   0.01082   0.01110   0.02909   0.03713
 Alpha virt. eigenvalues --    0.05471   0.05755   0.07186   0.07659   0.07957

 Mulliken charges:
               1
     1  C   -0.137273
     2  C   -0.182237
     3  C    0.214306
     4  C    0.162270
     5  C   -0.191180
     6  C   -0.092403
     7  C   -0.195339
     8  C   -0.461355
     9  C    0.162270
    10  C    0.214306
    11  C   -0.182237
    12  H    0.176104
    13  C   -0.137273
    14  C   -0.092403
    15  C   -0.191180
    16  H    0.216131
    17  H    0.185329
    18  H    0.176104
    19  H    0.170008
    20  H    0.196544
    21  H    0.218814
    22  H    0.185329
    23  H    0.196544
    24  H    0.170008
    25  H    0.218812
 Sum of Mulliken charges =   1.00000

 Dipole moment (field-independent basis, Debye):
    X=              0.0000    Y=             -0.2352    Z=              0.0000  Tot=              0.2352
 Quadrupole moment (field-independent basis, Debye-Ang):
   XX=            -30.1077   YY=            -55.7906   ZZ=            -81.8191
   XY=              0.0000   XZ=              0.0000   YZ=              0.0000

 Normal termination of Gaussian 09 at Thu Aug  5 17:44:01 2021.
