 Gaussian 09, Revision D.01,
 Gaussian 09:  ES64L-G09RevD.01 24-Apr-2013

 ------------------------------
 #n M062X/6-31G(2df,p) Opt Freq
 ------------------------------

 -----
 Title
 -----
 Symbolic Z-matrix:
 Charge =  1 Multiplicity = 1

 SCF Done:  E(RM062X) =  -539.681126523     A.U. after   14 cycles
 Optimization completed.
    -- Stationary point found.
 Normal termination of Gaussian 09 at Thu Aug  5 14:59:03 2021.

 ----------------------------------------------------------------------
 #N Geom=AllCheck Guess=TCheck SCRF=Check GenChk RM062X/6-31G(2df,p) Fr
 eq
 ----------------------------------------------------------------------

 Structure from the checkpoint file:  "/scratch/pbs.1385515.kman.restech.unsw.edu.au/Gau-12386.chk"
 -----
 Title
 -----
 Charge =  1 Multiplicity = 1

                         Standard orientation:
 ---------------------------------------------------------------------
 Center     Atomic      Atomic             Coordinates (Angstroms)
 Number     Number       Type             X           Y           Z
 ---------------------------------------------------------------------
      1          6           0       -3.651730    0.786850   -0.000010
      2          6           0       -2.442470    1.435350   -0.000010
      3          6           0       -1.239740    0.687980    0.000000
      4          6           0       -1.273300   -0.730740    0.000010
      5          6           0       -2.506030   -1.364110    0.000010
      6          6           0       -3.676250   -0.615070    0.000000
      7          6           0        0.000000    1.342750    0.000010
      8          6           0        0.000000   -1.514990    0.000020
      9          6           0        1.273300   -0.730740    0.000000
     10          6           0        1.239740    0.687980    0.000020
     11          6           0        2.442470    1.435350    0.000010
     12          1           0        2.389540    2.519000    0.000020
     13          6           0        3.651730    0.786850   -0.000010
     14          6           0        3.676250   -0.615070   -0.000030
     15          6           0        2.506030   -1.364110   -0.000020
     16          1           0        0.000000    2.432200    0.000010
     17          1           0       -4.578690    1.345940   -0.000020
     18          1           0       -2.389540    2.519000   -0.000020
     19          1           0       -2.557620   -2.447600    0.000020
     20          1           0       -4.631710   -1.128700    0.000000
     21          1           0        0.000000   -2.189530    0.868080
     22          1           0        4.578690    1.345940   -0.000010
     23          1           0        4.631710   -1.128700   -0.000050
     24          1           0        2.557620   -2.447600   -0.000040
     25          1           0        0.000000   -2.189590   -0.867980
 ---------------------------------------------------------------------

 SCF Done:  E(RM062X) =  -539.681126523     A.U. after    1 cycles

 The electronic state is 1-A.
 Alpha  occ. eigenvalues --  -10.76788 -10.73542 -10.73542 -10.72373 -10.72372
 Alpha  occ. eigenvalues --  -10.71674 -10.71674 -10.71616 -10.71616 -10.71585
 Alpha  occ. eigenvalues --  -10.70228 -10.70228 -10.69944 -10.69944  -1.15596
 Alpha  occ. eigenvalues --   -1.11806  -1.06176  -1.05130  -1.00636  -0.99589
 Alpha  occ. eigenvalues --   -0.95520  -0.89904  -0.85471  -0.85378  -0.82975
 Alpha  occ. eigenvalues --   -0.77657  -0.75200  -0.73492  -0.68752  -0.68433
 Alpha  occ. eigenvalues --   -0.67700  -0.67300  -0.67251  -0.64127  -0.63274
 Alpha  occ. eigenvalues --   -0.62313  -0.61031  -0.59696  -0.59232  -0.58335
 Alpha  occ. eigenvalues --   -0.56001  -0.54102  -0.54079  -0.51803  -0.46706
 Alpha  occ. eigenvalues --   -0.44827  -0.44781
 Alpha virt. eigenvalues --   -0.24826  -0.13330  -0.12753  -0.11189  -0.05519
 Alpha virt. eigenvalues --    0.00258   0.01074   0.01307   0.02898   0.04000
 Alpha virt. eigenvalues --    0.05614   0.05620   0.06906   0.08000   0.08064

 Mulliken charges:
               1
     1  C   -0.140832
     2  C   -0.167427
     3  C    0.200087
     4  C    0.158509
     5  C   -0.192546
     6  C   -0.093788
     7  C   -0.174795
     8  C   -0.457023
     9  C    0.158509
    10  C    0.200087
    11  C   -0.167427
    12  H    0.178996
    13  C   -0.140832
    14  C   -0.093788
    15  C   -0.192546
    16  H    0.202269
    17  H    0.187624
    18  H    0.178996
    19  H    0.173599
    20  H    0.192380
    21  H    0.218174
    22  H    0.187624
    23  H    0.192380
    24  H    0.173599
    25  H    0.218170
 Sum of Mulliken charges =   1.00000

 Dipole moment (field-independent basis, Debye):
    X=              0.0000    Y=              0.1119    Z=              0.0000  Tot=              0.1119
 Quadrupole moment (field-independent basis, Debye-Ang):
   XX=            -30.1107   YY=            -55.9439   ZZ=            -81.5945
   XY=              0.0000   XZ=             -0.0001   YZ=              0.0000

  Exact polarizability: 276.113   0.000 147.904   0.000   0.000  57.249
 Approx polarizability: 332.832   0.000 217.902  -0.001   0.000  87.226

                      1                      2                      3
                      A                      A                      A
 Frequencies --     57.9019               104.5733               183.2110
 Red. masses --      3.3576                 3.8555                 2.1081
 Frc consts  --      0.0066                 0.0248                 0.0417
 IR Inten    --      0.0365                 0.0000                 6.1307

                      4                      5                      6
                      A                      A                      A
 Frequencies --    223.6917               233.4912               321.0512
 Red. masses --      4.6308                 4.3684                 2.7217
 Frc consts  --      0.1365                 0.1403                 0.1653
 IR Inten    --      0.0000                 0.2181                 9.7537

                      7                      8                      9
                      A                      A                      A
 Frequencies --    378.5052               384.2475               414.9462
 Red. masses --      4.7640                 6.8095                 2.6821
 Frc consts  --      0.4021                 0.5924                 0.2721
 IR Inten    --      3.5670                 0.1443                 7.4595

                     10                     11                     12
                      A                      A                      A
 Frequencies --    446.2016               490.6739               520.9014
 Red. masses --      3.1658                 3.1259                 2.6125
 Frc consts  --      0.3714                 0.4434                 0.4177
 IR Inten    --      0.0000                 0.0000                 0.6636

                     13                     14                     15
                      A                      A                      A
 Frequencies --    525.6704               595.3570               610.7452
 Red. masses --      5.8591                 6.4439                 6.5378
 Frc consts  --      0.9539                 1.3457                 1.4368
 IR Inten    --     39.6255                 3.9387                20.4027

                     16                     17                     18
                      A                      A                      A
 Frequencies --    670.2230               676.8238               743.0507
 Red. masses --      6.0332                 2.2223                 2.4960
 Frc consts  --      1.5968                 0.5998                 0.8120
 IR Inten    --      0.0559                15.9099                 0.0000

                     19                     20                     21
                      A                      A                      A
 Frequencies --    753.1517               792.9476               803.1188
 Red. masses --      5.2844                 1.3186                 1.4779
 Frc consts  --      1.7661                 0.4885                 0.5616
 IR Inten    --      0.0235                71.5556                 0.0000

                     22                     23                     24
                      A                      A                      A
 Frequencies --    827.9131               868.6334               892.9543
 Red. masses --      3.2362                 1.6861                 5.6329
 Frc consts  --      1.3069                 0.7496                 2.6463
 IR Inten    --      4.9431                 1.9151                 0.0594

                     25                     26                     27
                      A                      A                      A
 Frequencies --    910.5321               915.3573               951.3746
 Red. masses --      5.2063                 1.3270                 1.8442
 Frc consts  --      2.5431                 0.6551                 0.9835
 IR Inten    --      0.7925                 0.0000                 9.2716

                     28                     29                     30
                      A                      A                      A
 Frequencies --    996.8927              1004.7606              1036.9687
 Red. masses --      1.3952                 1.3566                 1.5805
 Frc consts  --      0.8169                 0.8069                 1.0013
 IR Inten    --      0.0596                 0.0000                 8.5704

                     31                     32                     33
                      A                      A                      A
 Frequencies --   1050.8833              1052.3717              1065.5152
 Red. masses --      1.3991                 1.4160                 2.1164
 Frc consts  --      0.9103                 0.9239                 1.4157
 IR Inten    --      0.0000                 0.1326                 6.0788

                     34                     35                     36
                      A                      A                      A
 Frequencies --   1066.8771              1133.8445              1160.9189
 Red. masses --      2.2444                 2.0239                 1.6634
 Frc consts  --      1.5051                 1.5330                 1.3208
 IR Inten    --      1.0559                 0.2998                 8.8989

                     37                     38                     39
                      A                      A                      A
 Frequencies --   1178.7565              1190.8076              1201.9944
 Red. masses --      1.2494                 1.0946                 1.1188
 Frc consts  --      1.0228                 0.9145                 0.9524
 IR Inten    --     86.3205                 9.2542                 0.0000

                     40                     41                     42
                      A                      A                      A
 Frequencies --   1204.7032              1223.9688              1229.4782
 Red. masses --      1.2252                 1.2397                 2.7599
 Frc consts  --      1.0477                 1.0942                 2.4580
 IR Inten    --     31.3269                80.5743                 0.8241

                     43                     44                     45
                      A                      A                      A
 Frequencies --   1283.5414              1306.7772              1328.0276
 Red. masses --      1.7491                 1.5103                 3.3090
 Frc consts  --      1.6978                 1.5196                 3.4384
 IR Inten    --      3.1658                 1.8136                32.6234

                     46                     47                     48
                      A                      A                      A
 Frequencies --   1372.6207              1392.0192              1401.0030
 Red. masses --      2.4167                 1.0973                 3.0462
 Frc consts  --      2.6827                 1.2528                 3.5228
 IR Inten    --    165.0020                51.9151               109.2239

                     49                     50                     51
                      A                      A                      A
 Frequencies --   1404.6962              1460.7120              1497.1900
 Red. masses --      7.0738                 2.0820                 2.6985
 Frc consts  --      8.2237                 2.6173                 3.5639
 IR Inten    --     16.8384                53.6121                30.0692

                     52                     53                     54
                      A                      A                      A
 Frequencies --   1500.0604              1538.1294              1570.1303
 Red. masses --      3.6398                 3.0149                 3.9662
 Frc consts  --      4.8256                 4.2025                 5.7610
 IR Inten    --    339.1079                27.5609               524.8827

                     55                     56                     57
                      A                      A                      A
 Frequencies --   1622.0969              1622.3261              1669.7071
 Red. masses --      5.2349                 5.9989                 6.0207
 Frc consts  --      8.1154                 9.3025                 9.8895
 IR Inten    --     59.2812                18.8126               444.3807

                     58                     59                     60
                      A                      A                      A
 Frequencies --   1686.0665              3035.0620              3067.8830
 Red. masses --      6.5464                 1.0617                 1.0968
 Frc consts  --     10.9648                 5.7624                 6.0820
 IR Inten    --     25.5970                10.9706                 2.8962

                     61                     62                     63
                      A                      A                      A
 Frequencies --   3182.5385              3199.5608              3199.7194
 Red. masses --      1.0913                 1.0893                 1.0894
 Frc consts  --      6.5125                 6.5702                 6.5712
 IR Inten    --      0.1021                 0.4577                 0.0035

                     64                     65                     66
                      A                      A                      A
 Frequencies --   3206.6210              3206.8377              3214.5520
 Red. masses --      1.0908                 1.0910                 1.0951
 Frc consts  --      6.6084                 6.6104                 6.6673
 IR Inten    --      0.6904                 0.0352                 0.8858

                     67                     68                     69
                      A                      A                      A
 Frequencies --   3214.5888              3235.7190              3235.7387
 Red. masses --      1.0951                 1.0977                 1.0977
 Frc consts  --      6.6674                 6.7715                 6.7717
 IR Inten    --      0.0454                 0.7792                 0.0897

 - Thermochemistry -
 -------------------
 Temperature   298.150 Kelvin.  Pressure   1.00000 Atm.
 Atom     1 has atomic number  6 and mass  12.00000

 Molecular mass:   179.08608 amu.
 Principal axes and moments of inertia in atomic units:
                           1         2         3
     Eigenvalues --   855.679894020.334094865.16692
           X            1.00000   0.00000   0.00000
           Y            0.00000   1.00000   0.00000
           Z            0.00000   0.00000   1.00000
 This molecule is an asymmetric top.
 Rotational symmetry number  1.
 Warning -- assumption of classical behavior for rotation
           may cause significant error
 Rotational temperatures (Kelvin)      0.10122     0.02154     0.01780
 Rotational constants (GHZ):           2.10913     0.44890     0.37095
 Zero-point vibrational energy     542805.0 (Joules/Mol)
                                  129.73352 (Kcal/Mol)
 Warning -- explicit consideration of  15 degrees of freedom as
           vibrations may cause significant error
 Vibrational temperatures:     83.31   150.46   263.60   321.84   335.94
          (Kelvin)            461.92   544.58   552.85   597.01   641.98
                              705.97   749.46   756.32   856.58   878.73
                              964.30   973.80  1069.08  1083.62  1140.87
                             1155.51  1191.18  1249.77  1284.76  1310.05
                             1316.99  1368.81  1434.30  1445.62  1491.96
                             1511.98  1514.13  1533.04  1535.00  1631.35
                             1670.30  1695.97  1713.30  1729.40  1733.30
                             1761.02  1768.94  1846.73  1880.16  1910.73
                             1974.89  2002.80  2015.73  2021.04  2101.64
                             2154.12  2158.25  2213.02  2259.06  2333.83
                             2334.16  2402.33  2425.87  4366.77  4413.99
                             4578.96  4603.45  4603.68  4613.61  4613.92
                             4625.02  4625.07  4655.47  4655.50

 Zero-point correction=                           0.206744 (Hartree/Particle)
 Thermal correction to Energy=                    0.216707
 Thermal correction to Enthalpy=                  0.217652
 Thermal correction to Gibbs Free Energy=         0.171042
 Sum of electronic and zero-point Energies=           -539.474383
 Sum of electronic and thermal Energies=              -539.464419
 Sum of electronic and thermal Enthalpies=            -539.463475
 Sum of electronic and thermal Free Energies=         -539.510085

                     E (Thermal)             CV                S
                      KCal/Mol        Cal/Mol-Kelvin    Cal/Mol-Kelvin
 Total                  135.986             41.589             98.099
 Electronic               0.000              0.000              0.000
 Translational            0.889              2.981             41.455
 Rotational               0.889              2.981             31.193
 Vibrational            134.209             35.628             25.451
 Vibration     1          0.596              1.974              4.527
 Vibration     2          0.605              1.946              3.367
 Vibration     3          0.631              1.863              2.295
 Vibration     4          0.649              1.805              1.929
 Vibration     5          0.654              1.790              1.852
 Vibration     6          0.707              1.633              1.305
 Vibration     7          0.749              1.516              1.045
 Vibration     8          0.753              1.504              1.022
 Vibration     9          0.778              1.438              0.909
 Vibration    10          0.805              1.369              0.807
 Vibration    11          0.846              1.271              0.682
 Vibration    12          0.876              1.204              0.608
 Vibration    13          0.881              1.193              0.597
 Vibration    14          0.953              1.042              0.458
 Vibration    15          0.970              1.009              0.432

 Optimization completed.
    -- Stationary point found.
 Normal termination of Gaussian 09 at Thu Aug  5 15:15:15 2021.
