 Gaussian 09, Revision D.01,
 Gaussian 09:  ES64L-G09RevD.01 24-Apr-2013

 -------------------------
 #n M062X/6-31G(2df,p) Opt
 -------------------------

 -----
 Title
 -----
 Symbolic Z-matrix:
 Charge =  1 Multiplicity = 1

 SCF Done:  E(RM062X) =  -539.680757014     A.U. after   14 cycles
 SCF Done:  E(RM062X) =  -539.681116076     A.U. after   11 cycles
 SCF Done:  E(RM062X) =  -539.681126530     A.U. after    9 cycles
 Optimization completed.
    -- Stationary point found.

                         Standard orientation:
 ---------------------------------------------------------------------
 Center     Atomic      Atomic             Coordinates (Angstroms)
 Number     Number       Type             X           Y           Z
 ---------------------------------------------------------------------
      1          6           0        3.651726   -0.786855   -0.000014
      2          6           0        2.442475   -1.435347   -0.000014
      3          6           0        1.239744   -0.687976   -0.000002
      4          6           0        1.273300    0.730740    0.000008
      5          6           0        2.506031    1.364109    0.000011
      6          6           0        3.676252    0.615068   -0.000001
      7          6           0        0.000000   -1.342745    0.000010
      8          6           0        0.000000    1.514994    0.000023
      9          6           0       -1.273300    0.730740    0.000002
     10          6           0       -1.239744   -0.687976    0.000015
     11          6           0       -2.442475   -1.435347    0.000012
     12          1           0       -2.389538   -2.518996    0.000024
     13          6           0       -3.651726   -0.786855   -0.000006
     14          6           0       -3.676252    0.615068   -0.000025
     15          6           0       -2.506031    1.364109   -0.000021
     16          1           0        0.000000   -2.432195    0.000011
     17          1           0        4.578691   -1.345940   -0.000024
     18          1           0        2.389538   -2.518996   -0.000023
     19          1           0        2.557616    2.447596    0.000022
     20          1           0        4.631707    1.128702    0.000001
     21          1           0       -0.000002    2.189527    0.868076
     22          1           0       -4.578691   -1.345940   -0.000007
     23          1           0       -4.631707    1.128702   -0.000045
     24          1           0       -2.557616    2.447596   -0.000037
     25          1           0        0.000002    2.189586   -0.867983
 ---------------------------------------------------------------------

 The electronic state is 1-A.
 Alpha  occ. eigenvalues --  -10.76788 -10.73542 -10.73542 -10.72373 -10.72372
 Alpha  occ. eigenvalues --  -10.71674 -10.71674 -10.71615 -10.71615 -10.71585
 Alpha  occ. eigenvalues --  -10.70228 -10.70228 -10.69944 -10.69944  -1.15596
 Alpha  occ. eigenvalues --   -1.11806  -1.06176  -1.05130  -1.00637  -0.99589
 Alpha  occ. eigenvalues --   -0.95520  -0.89904  -0.85471  -0.85378  -0.82975
 Alpha  occ. eigenvalues --   -0.77657  -0.75200  -0.73492  -0.68752  -0.68433
 Alpha  occ. eigenvalues --   -0.67700  -0.67300  -0.67251  -0.64127  -0.63274
 Alpha  occ. eigenvalues --   -0.62313  -0.61031  -0.59696  -0.59232  -0.58335
 Alpha  occ. eigenvalues --   -0.56001  -0.54102  -0.54079  -0.51803  -0.46706
 Alpha  occ. eigenvalues --   -0.44827  -0.44781
 Alpha virt. eigenvalues --   -0.24826  -0.13330  -0.12752  -0.11189  -0.05519
 Alpha virt. eigenvalues --    0.00258   0.01074   0.01307   0.02898   0.04000
 Alpha virt. eigenvalues --    0.05614   0.05620   0.06906   0.08000   0.08064

 Mulliken charges:
               1
     1  C   -0.140832
     2  C   -0.167420
     3  C    0.200085
     4  C    0.158507
     5  C   -0.192544
     6  C   -0.093793
     7  C   -0.174796
     8  C   -0.457019
     9  C    0.158507
    10  C    0.200085
    11  C   -0.167420
    12  H    0.178995
    13  C   -0.140832
    14  C   -0.093793
    15  C   -0.192544
    16  H    0.202269
    17  H    0.187624
    18  H    0.178995
    19  H    0.173599
    20  H    0.192381
    21  H    0.218173
    22  H    0.187624
    23  H    0.192381
    24  H    0.173599
    25  H    0.218170
 Sum of Mulliken charges =   1.00000

 Dipole moment (field-independent basis, Debye):
    X=              0.0000    Y=             -0.1119    Z=              0.0000  Tot=              0.1119
 Quadrupole moment (field-independent basis, Debye-Ang):
   XX=            -30.1108   YY=            -55.9440   ZZ=            -81.5944
   XY=              0.0000   XZ=              0.0001   YZ=              0.0000

 Normal termination of Gaussian 09 at Thu Aug  5 12:23:03 2021.
