 Gaussian 09, Revision D.01,
 Gaussian 09:  ES64L-G09RevD.01 24-Apr-2013

 --------------------------------------------------------------
 #n M062X/6-31G(2df,p) TD=(nstates=5,root=1) Opt=(Restart,QST3)
 --------------------------------------------------------------

 SCF Done:  E(RM062X) =  -539.664576840     A.U. after   12 cycles
 SCF Done:  E(RM062X) =  -539.664191428     A.U. after   11 cycles
 SCF Done:  E(RM062X) =  -539.664524890     A.U. after   11 cycles
 SCF Done:  E(RM062X) =  -539.664527542     A.U. after    8 cycles
 SCF Done:  E(RM062X) =  -539.664520553     A.U. after    7 cycles

 Excitation energies and oscillator strengths:

 Excited State   1:      Singlet-A      2.6282 eV  471.75 nm  f=0.0251  <S**2>=0.000
      47 -> 48        -0.69762
 This state for optimization and/or second-order correction.
 Total Energy, E(TD-HF/TD-KS) =  -539.567937102
 Copying the excited state density for this state as the 1-particle RhoCI density.

 Excited State   2:      Singlet-A      3.1219 eV  397.15 nm  f=0.0916  <S**2>=0.000
      45 -> 48        -0.42255
      46 -> 48         0.55434

 Excited State   3:      Singlet-A      3.4468 eV  359.71 nm  f=0.4261  <S**2>=0.000
      45 -> 48        -0.55530
      46 -> 48        -0.42234

 Excited State   4:      Singlet-A      4.6338 eV  267.57 nm  f=0.0086  <S**2>=0.000
      42 -> 48        -0.15019
      43 -> 48        -0.64715
      44 -> 48        -0.16055

 Excited State   5:      Singlet-A      4.9006 eV  253.00 nm  f=0.0054  <S**2>=0.000
      41 -> 48         0.17659
      42 -> 48        -0.60606
      43 -> 48         0.18778
      44 -> 48        -0.16573

 Optimization completed.
    -- Stationary point found.

                         Standard orientation:
 ---------------------------------------------------------------------
 Center     Atomic      Atomic             Coordinates (Angstroms)
 Number     Number       Type             X           Y           Z
 ---------------------------------------------------------------------
      1          6           0       -3.644331    0.710310   -0.205447
      2          6           0       -2.413312    1.414966    0.015400
      3          6           0       -1.209365    0.753200    0.124780
      4          6           0       -1.250038   -0.660206    0.116573
      5          6           0       -2.474720   -1.354330   -0.164300
      6          6           0       -3.672556   -0.676910   -0.296214
      7          6           0        0.053883    1.439211    0.251191
      8          6           0       -0.033898   -1.417254    0.510906
      9          6           0        1.244521   -0.692705    0.151633
     10          6           0        1.256615    0.730513    0.153842
     11          6           0        2.496480    1.400260   -0.023967
     12          1           0        2.508881    2.484658   -0.010670
     13          6           0        3.648810    0.685999   -0.246301
     14          6           0        3.606477   -0.712238   -0.296372
     15          6           0        2.406639   -1.393755   -0.098129
     16          1           0        0.058254    2.522799    0.282265
     17          1           0       -4.553331    1.287922   -0.334958
     18          1           0       -2.445092    2.497051    0.095518
     19          1           0       -2.439249   -2.435803   -0.251242
     20          1           0       -4.595903   -1.204905   -0.492414
     21          1           0       -0.068323   -1.528603    1.610687
     22          1           0        4.589772    1.201946   -0.392392
     23          1           0        4.517065   -1.273667   -0.469771
     24          1           0        2.394610   -2.478325   -0.109509
     25          1           0       -0.057914   -2.435444    0.110908
 ---------------------------------------------------------------------

 The electronic state is 1-A.
 Alpha  occ. eigenvalues --  -10.77943 -10.73858 -10.73022 -10.72992 -10.72484
 Alpha  occ. eigenvalues --  -10.72451 -10.72284 -10.71442 -10.71263 -10.70818
 Alpha  occ. eigenvalues --  -10.70617 -10.70431 -10.70106 -10.69895  -1.15525
 Alpha  occ. eigenvalues --   -1.11477  -1.06114  -1.04699  -1.00561  -0.99236
 Alpha  occ. eigenvalues --   -0.95015  -0.90100  -0.85329  -0.84905  -0.82873
 Alpha  occ. eigenvalues --   -0.77973  -0.74880  -0.73460  -0.69246  -0.68636
 Alpha  occ. eigenvalues --   -0.67863  -0.66901  -0.66466  -0.64331  -0.63518
 Alpha  occ. eigenvalues --   -0.61964  -0.60728  -0.59673  -0.58768  -0.57908
 Alpha  occ. eigenvalues --   -0.56077  -0.54446  -0.53732  -0.51767  -0.46352
 Alpha  occ. eigenvalues --   -0.45242  -0.43555
 Alpha virt. eigenvalues --   -0.25711  -0.13144  -0.12697  -0.11413  -0.06437
 Alpha virt. eigenvalues --    0.00412   0.01028   0.01261   0.02483   0.04262
 Alpha virt. eigenvalues --    0.05163   0.05908   0.07295   0.07374   0.07875

 Mulliken charges:
               1
     1  C   -0.146296
     2  C   -0.194024
     3  C    0.228899
     4  C    0.145024
     5  C   -0.193894
     6  C   -0.082235
     7  C   -0.192592
     8  C   -0.452184
     9  C    0.177136
    10  C    0.205357
    11  C   -0.159649
    12  H    0.183180
    13  C   -0.134357
    14  C   -0.090861
    15  C   -0.199449
    16  H    0.213698
    17  H    0.181466
    18  H    0.173750
    19  H    0.167523
    20  H    0.195454
    21  H    0.223829
    22  H    0.188749
    23  H    0.198570
    24  H    0.177615
    25  H    0.185289
 Sum of Mulliken charges =   1.00000

 Dipole moment (field-independent basis, Debye):
    X=              0.8843    Y=              0.4511    Z=              0.1800  Tot=              1.0089
 Quadrupole moment (field-independent basis, Debye-Ang):
   XX=            -31.0524   YY=            -56.3030   ZZ=            -80.6185
   XY=              0.1365   XZ=             -0.1948   YZ=              0.3925

 Normal termination of Gaussian 09 at Sun Aug  8 15:23:45 2021.
