 Gaussian 16, Revision C.01,
 Gaussian 16:  ES64L-G16RevC.01  3-Jul-2019

 ---------------------------------------------------------------
 #n M062X/6-311++G(d,p) TD(NStates=1) EmpiricalDispersion=GD3 SP
 ---------------------------------------------------------------

 ------
 SP_125
 ------
 Symbolic Z-matrix:
 Charge =  1 Multiplicity = 1

                         Standard orientation:
 ---------------------------------------------------------------------
 Center     Atomic      Atomic             Coordinates (Angstroms)
 Number     Number       Type             X           Y           Z
 ---------------------------------------------------------------------
      1          6           0       -2.491335   -1.360197    0.003308
      2          6           0       -3.708126   -0.671635    0.010270
      3          6           0       -3.694674    0.714238    0.010117
      4          6           0       -2.471773    1.407944   -0.004282
      5          6           0        2.472739    1.407304   -0.002825
      6          6           0        3.697849    0.713292    0.010945
      7          6           0        3.708991   -0.672575    0.010056
      8          6           0        2.492777   -1.360795   -0.000620
      9          6           0       -0.006789   -1.453385   -0.004503
     10          6           0        0.000489    1.429352   -0.012162
     11          6           0       -1.254566   -0.676842   -0.010202
     12          6           0       -1.239026    0.731033   -0.004960
     13          6           0        1.254244   -0.677164   -0.009760
     14          6           0        1.238316    0.730701   -0.002880
     15          1           0       -2.486960   -2.443292   -0.015289
     16          1           0       -4.641539   -1.211197    0.005680
     17          1           0       -4.606776    1.272924    0.006767
     18          1           0       -2.475857    2.490356    0.012959
     19          1           0        0.000475    2.510370   -0.000732
     20          1           0        2.476942    2.489704    0.015620
     21          1           0        4.610848    1.271733    0.009143
     22          1           0        4.643467   -1.212374    0.005530
     23          1           0        2.488284   -2.443880   -0.020121
     24          1           0       -0.001478   -2.136755   -0.846818
     25          1           0       -0.002092   -2.155210    0.872256
 ---------------------------------------------------------------------

 SCF Done:  E(RM062X) =  -539.758620733     A.U. after   15 cycles

 Excitation energies and oscillator strengths:

 Excited State   1:      Singlet-A      2.8051 eV  442.00 nm  f=0.0279  <S**2>=0.000
      47 -> 48         0.70427
 This state for optimization and/or second-order correction.
 Total Energy, E(TD-HF/TD-DFT) =  -539.655536080
 Copying the excited state density for this state as the 1-particle RhoCI density.

 The electronic state is 1-A.
 Alpha  occ. eigenvalues --  -10.77658 -10.73315 -10.73232 -10.72522 -10.72518
 Alpha  occ. eigenvalues --  -10.71496 -10.71451 -10.71075 -10.71060 -10.70981
 Alpha  occ. eigenvalues --  -10.70101 -10.70069 -10.69617 -10.69577  -1.16378
 Alpha  occ. eigenvalues --   -1.12253  -1.06837  -1.05798  -1.01120  -1.00197
 Alpha  occ. eigenvalues --   -0.95705  -0.91075  -0.86410  -0.85865  -0.83806
 Alpha  occ. eigenvalues --   -0.78390  -0.76010  -0.74376  -0.69579  -0.69307
 Alpha  occ. eigenvalues --   -0.68596  -0.68246  -0.68131  -0.64583  -0.64152
 Alpha  occ. eigenvalues --   -0.63170  -0.61999  -0.59921  -0.59521  -0.59145
 Alpha  occ. eigenvalues --   -0.56924  -0.55267  -0.54895  -0.52356  -0.46492
 Alpha  occ. eigenvalues --   -0.46046  -0.44406
 Alpha virt. eigenvalues --   -0.26071  -0.14789  -0.14127  -0.12902  -0.11177
 Alpha virt. eigenvalues --   -0.10081  -0.09214  -0.08005  -0.07931  -0.07469
 Alpha virt. eigenvalues --   -0.07216  -0.07147  -0.05646  -0.05582  -0.05353

 Mulliken charges:
               1
     1  C    0.078040
     2  C   -0.401660
     3  C   -0.442298
     4  C    0.036435
     5  C    0.038107
     6  C   -0.441025
     7  C   -0.396538
     8  C    0.080835
     9  C   -0.302795
    10  C    0.094256
    11  C   -0.632922
    12  C    0.655027
    13  C   -0.629497
    14  C    0.650019
    15  H    0.236514
    16  H    0.256718
    17  H    0.245092
    18  H    0.222554
    19  H    0.188787
    20  H    0.222568
    21  H    0.245599
    22  H    0.256863
    23  H    0.236503
    24  H    0.248867
    25  H    0.253950
 Sum of Mulliken charges =   1.00000

 Dipole moment (field-independent basis, Debye):
    X=              0.0081    Y=              0.1909    Z=              0.0005  Tot=              0.1911
 Quadrupole moment (field-independent basis, Debye-Ang):
   XX=            -30.9421   YY=            -56.2604   ZZ=            -84.2066
   XY=              0.0045   XZ=              0.0074   YZ=              0.0952

 Normal termination of Gaussian 16 at Wed Jul 27 13:30:00 2022.
