 Gaussian 16, Revision C.01,
 Gaussian 16:  ES64L-G16RevC.01  3-Jul-2019

 ---------------------------------------------------------------
 #n M062X/6-311++G(d,p) TD(NStates=1) EmpiricalDispersion=GD3 SP
 ---------------------------------------------------------------

 ----
 SP_0
 ----
 Symbolic Z-matrix:
 Charge =  1 Multiplicity = 1

                         Standard orientation:
 ---------------------------------------------------------------------
 Center     Atomic      Atomic             Coordinates (Angstroms)
 Number     Number       Type             X           Y           Z
 ---------------------------------------------------------------------
      1          6           0        2.492822   -1.360236    0.000101
      2          6           0        3.690486   -0.671782    0.015158
      3          6           0        3.663670    0.714141    0.016172
      4          6           0        2.449039    1.408031   -0.004665
      5          6           0       -2.449973    1.407432   -0.006126
      6          6           0       -3.666852    0.713227    0.015338
      7          6           0       -3.691381   -0.672715    0.015355
      8          6           0       -2.494290   -1.360917    0.004009
      9          6           0        0.006780   -1.453409   -0.006517
     10          6           0       -0.000465    1.429555   -0.018309
     11          6           0        1.273694   -0.676769   -0.014725
     12          6           0        1.236036    0.731088   -0.004875
     13          6           0       -1.273366   -0.677084   -0.015190
     14          6           0       -1.235306    0.730804   -0.006963
     15          1           0        2.488080   -2.443165   -0.028881
     16          1           0        4.627149   -1.211321    0.008379
     17          1           0        4.607905    1.272868    0.013076
     18          1           0        2.453741    2.490286    0.022658
     19          1           0       -0.000453    2.510500   -0.001205
     20          1           0       -2.454808    2.489702    0.019994
     21          1           0       -4.611969    1.271737    0.010663
     22          1           0       -4.629108   -1.212490    0.008502
     23          1           0       -2.489414   -2.443856   -0.024071
     24          1           0        0.001447   -2.155910    0.878681
     25          1           0        0.002063   -2.136542   -0.840383
 ---------------------------------------------------------------------

 SCF Done:  E(RM062X) =  -539.758400215     A.U. after   15 cycles

 Excitation energies and oscillator strengths:

 Excited State   1:      Singlet-A      2.8423 eV  436.22 nm  f=0.0298  <S**2>=0.000
      47 -> 48         0.70423
 This state for optimization and/or second-order correction.
 Total Energy, E(TD-HF/TD-DFT) =  -539.653948745
 Copying the excited state density for this state as the 1-particle RhoCI density.

 The electronic state is 1-A.
 Alpha  occ. eigenvalues --  -10.77681 -10.73240 -10.73156 -10.72318 -10.72313
 Alpha  occ. eigenvalues --  -10.71236 -10.71192 -10.70973 -10.70920 -10.70907
 Alpha  occ. eigenvalues --  -10.69827 -10.69794 -10.69707 -10.69667  -1.16548
 Alpha  occ. eigenvalues --   -1.12780  -1.07119  -1.05625  -1.01638  -1.00121
 Alpha  occ. eigenvalues --   -0.95901  -0.91022  -0.86440  -0.85959  -0.83828
 Alpha  occ. eigenvalues --   -0.78434  -0.76040  -0.74480  -0.69562  -0.69226
 Alpha  occ. eigenvalues --   -0.68509  -0.68071  -0.67894  -0.64976  -0.64488
 Alpha  occ. eigenvalues --   -0.62848  -0.61655  -0.60088  -0.59904  -0.59002
 Alpha  occ. eigenvalues --   -0.56868  -0.55137  -0.54708  -0.52562  -0.46865
 Alpha  occ. eigenvalues --   -0.46022  -0.44627
 Alpha virt. eigenvalues --   -0.26124  -0.14528  -0.14062  -0.12599  -0.11183
 Alpha virt. eigenvalues --   -0.10098  -0.09253  -0.08052  -0.07941  -0.07485
 Alpha virt. eigenvalues --   -0.07221  -0.07109  -0.05638  -0.05581  -0.05306

 Mulliken charges:
               1
     1  C    0.089694
     2  C   -0.417955
     3  C   -0.441984
     4  C    0.052695
     5  C    0.050947
     6  C   -0.441690
     7  C   -0.414811
     8  C    0.091417
     9  C   -0.340044
    10  C    0.098744
    11  C   -0.580585
    12  C    0.602711
    13  C   -0.568743
    14  C    0.602678
    15  H    0.236301
    16  H    0.255473
    17  H    0.253531
    18  H    0.220196
    19  H    0.190627
    20  H    0.220330
    21  H    0.253845
    22  H    0.255877
    23  H    0.235890
    24  H    0.251325
    25  H    0.243529
 Sum of Mulliken charges =   1.00000

 Dipole moment (field-independent basis, Debye):
    X=             -0.0076    Y=              0.1801    Z=             -0.0005  Tot=              0.1803
 Quadrupole moment (field-independent basis, Debye-Ang):
   XX=            -31.3771   YY=            -56.2624   ZZ=            -84.0454
   XY=             -0.0042   XZ=              0.0073   YZ=              0.1449

 Normal termination of Gaussian 16 at Wed Jul 27 13:54:35 2022.
