 Gaussian 16, Revision C.01,
 Gaussian 16:  ES64L-G16RevC.01  3-Jul-2019

 ---------------------------------------------------------------
 #n M062X/6-311++G(d,p) TD(NStates=1) EmpiricalDispersion=GD3 SP
 ---------------------------------------------------------------

 ------
 SP_125
 ------
 Symbolic Z-matrix:
 Charge =  1 Multiplicity = 1

                         Standard orientation:
 ---------------------------------------------------------------------
 Center     Atomic      Atomic             Coordinates (Angstroms)
 Number     Number       Type             X           Y           Z
 ---------------------------------------------------------------------
      1          6           0       -2.491392   -1.360038    0.003275
      2          6           0       -3.704453   -0.671393    0.005217
      3          6           0       -3.687944    0.714439    0.004726
      4          6           0       -2.467066    1.407981   -0.002727
      5          6           0        2.468345    1.407138   -0.000783
      6          6           0        3.692179    0.713187    0.005832
      7          6           0        3.705614   -0.672644    0.004937
      8          6           0        2.493321   -1.360857   -0.001957
      9          6           0       -0.009050   -1.453371   -0.002332
     10          6           0        0.000645    1.429230   -0.006059
     11          6           0       -1.258446   -0.676836   -0.005293
     12          6           0       -1.238547    0.731035   -0.003335
     13          6           0        1.258014   -0.677263   -0.004698
     14          6           0        1.237594    0.730604   -0.000559
     15          1           0       -2.486964   -2.443226   -0.005661
     16          1           0       -4.638339   -1.210930    0.002888
     17          1           0       -4.606323    1.273129    0.002409
     18          1           0       -2.471254    2.490477    0.005407
     19          1           0        0.000628    2.510292   -0.000330
     20          1           0        2.472695    2.489626    0.008955
     21          1           0        4.611750    1.271557    0.005588
     22          1           0        4.640918   -1.212497    0.002695
     23          1           0        2.488732   -2.444038   -0.012098
     24          1           0       -0.001963   -2.139836   -0.853231
     25          1           0       -0.002782   -2.151836    0.865902
 ---------------------------------------------------------------------

 SCF Done:  E(RM062X) =  -539.759630732     A.U. after   15 cycles

 Excitation energies and oscillator strengths:

 Excited State   1:      Singlet-A      2.8144 eV  440.54 nm  f=0.0283  <S**2>=0.000
      47 -> 48         0.70426
 This state for optimization and/or second-order correction.
 Total Energy, E(TD-HF/TD-DFT) =  -539.656204325
 Copying the excited state density for this state as the 1-particle RhoCI density.

 The electronic state is 1-A.
 Alpha  occ. eigenvalues --  -10.77661 -10.73311 -10.73201 -10.72480 -10.72475
 Alpha  occ. eigenvalues --  -10.71450 -10.71391 -10.71046 -10.71026 -10.70980
 Alpha  occ. eigenvalues --  -10.70050 -10.70007 -10.69640 -10.69585  -1.16410
 Alpha  occ. eigenvalues --   -1.12360  -1.06890  -1.05767  -1.01214  -1.00194
 Alpha  occ. eigenvalues --   -0.95743  -0.91066  -0.86415  -0.85882  -0.83812
 Alpha  occ. eigenvalues --   -0.78394  -0.76020  -0.74397  -0.69569  -0.69271
 Alpha  occ. eigenvalues --   -0.68539  -0.68223  -0.68129  -0.64660  -0.64218
 Alpha  occ. eigenvalues --   -0.63125  -0.61930  -0.59965  -0.59600  -0.59120
 Alpha  occ. eigenvalues --   -0.56909  -0.55247  -0.54862  -0.52397  -0.46555
 Alpha  occ. eigenvalues --   -0.46056  -0.44454
 Alpha virt. eigenvalues --   -0.26079  -0.14727  -0.14112  -0.12837  -0.11178
 Alpha virt. eigenvalues --   -0.10083  -0.09222  -0.07991  -0.07953  -0.07472
 Alpha virt. eigenvalues --   -0.07207  -0.07150  -0.05645  -0.05582  -0.05342

 Mulliken charges:
               1
     1  C    0.086018
     2  C   -0.405843
     3  C   -0.441012
     4  C    0.019820
     5  C    0.021584
     6  C   -0.439724
     7  C   -0.399709
     8  C    0.089811
     9  C   -0.322259
    10  C    0.092574
    11  C   -0.642787
    12  C    0.682285
    13  C   -0.634807
    14  C    0.676558
    15  H    0.237126
    16  H    0.256411
    17  H    0.246826
    18  H    0.222323
    19  H    0.189734
    20  H    0.222377
    21  H    0.247459
    22  H    0.256669
    23  H    0.237008
    24  H    0.249670
    25  H    0.251884
 Sum of Mulliken charges =   1.00000

 Dipole moment (field-independent basis, Debye):
    X=              0.0107    Y=              0.1894    Z=             -0.0002  Tot=              0.1897
 Quadrupole moment (field-independent basis, Debye-Ang):
   XX=            -31.0290   YY=            -56.2617   ZZ=            -84.1742
   XY=              0.0060   XZ=              0.0098   YZ=              0.0467

 Normal termination of Gaussian 16 at Wed Jul 27 13:34:43 2022.
