 Gaussian 16, Revision C.01,
 Gaussian 16:  ES64L-G16RevC.01  3-Jul-2019

 ---------------------------------------------------------------
 #n M062X/6-311++G(d,p) TD(NStates=1) EmpiricalDispersion=GD3 SP
 ---------------------------------------------------------------

 -----
 SP_25
 -----
 Symbolic Z-matrix:
 Charge =  1 Multiplicity = 1

                         Standard orientation:
 ---------------------------------------------------------------------
 Center     Atomic      Atomic             Coordinates (Angstroms)
 Number     Number       Type             X           Y           Z
 ---------------------------------------------------------------------
      1          6           0        2.492551   -1.360140   -0.000562
      2          6           0        3.692176   -0.671624    0.012600
      3          6           0        3.666506    0.714263    0.013610
      4          6           0        2.451234    1.408024   -0.003654
      5          6           0       -2.452328    1.407321   -0.005358
      6          6           0       -3.670217    0.713194    0.012637
      7          6           0       -3.693216   -0.672714    0.012832
      8          6           0       -2.494261   -1.360924    0.003999
      9          6           0        0.007911   -1.453396   -0.005398
     10          6           0       -0.000546    1.429443   -0.015267
     11          6           0        1.271809   -0.676785   -0.012192
     12          6           0        1.236395    0.731071   -0.003720
     13          6           0       -1.271426   -0.677153   -0.012733
     14          6           0       -1.235546    0.730734   -0.006155
     15          1           0        2.487857   -2.443155   -0.024860
     16          1           0        4.628425   -1.211157    0.006965
     17          1           0        4.607453    1.272980    0.011288
     18          1           0        2.455864    2.490359    0.019311
     19          1           0       -0.000531    2.510429   -0.001020
     20          1           0       -2.457110    2.489669    0.016203
     21          1           0       -4.612196    1.271654    0.008477
     22          1           0       -4.630707   -1.212522    0.007112
     23          1           0       -2.489413   -2.443950   -0.019245
     24          1           0        0.001692   -2.153607    0.875522
     25          1           0        0.002410   -2.138576   -0.843586
 ---------------------------------------------------------------------

 SCF Done:  E(RM062X) =  -539.759032305     A.U. after   15 cycles

 Excitation energies and oscillator strengths:

 Excited State   1:      Singlet-A      2.8396 eV  436.62 nm  f=0.0296  <S**2>=0.000
      47 -> 48         0.70424
 This state for optimization and/or second-order correction.
 Total Energy, E(TD-HF/TD-DFT) =  -539.654678235
 Copying the excited state density for this state as the 1-particle RhoCI density.

 The electronic state is 1-A.
 Alpha  occ. eigenvalues --  -10.77678 -10.73253 -10.73156 -10.72337 -10.72332
 Alpha  occ. eigenvalues --  -10.71266 -10.71214 -10.70975 -10.70937 -10.70920
 Alpha  occ. eigenvalues --  -10.69856 -10.69818 -10.69700 -10.69653  -1.16530
 Alpha  occ. eigenvalues --   -1.12728  -1.07089  -1.05644  -1.01582  -1.00134
 Alpha  occ. eigenvalues --   -0.95881  -0.91028  -0.86436  -0.85948  -0.83826
 Alpha  occ. eigenvalues --   -0.78426  -0.76040  -0.74469  -0.69561  -0.69224
 Alpha  occ. eigenvalues --   -0.68502  -0.68095  -0.67937  -0.64937  -0.64454
 Alpha  occ. eigenvalues --   -0.62891  -0.61689  -0.60078  -0.59867  -0.59018
 Alpha  occ. eigenvalues --   -0.56872  -0.55153  -0.54729  -0.52541  -0.46823
 Alpha  occ. eigenvalues --   -0.46030  -0.44607
 Alpha virt. eigenvalues --   -0.26117  -0.14548  -0.14068  -0.12626  -0.11182
 Alpha virt. eigenvalues --   -0.10095  -0.09249  -0.08040  -0.07946  -0.07484
 Alpha virt. eigenvalues --   -0.07217  -0.07116  -0.05639  -0.05581  -0.05310

 Mulliken charges:
               1
     1  C    0.091101
     2  C   -0.417712
     3  C   -0.442272
     4  C    0.043858
     5  C    0.042513
     6  C   -0.441842
     7  C   -0.413904
     8  C    0.093503
     9  C   -0.337282
    10  C    0.100383
    11  C   -0.595424
    12  C    0.620822
    13  C   -0.581840
    14  C    0.620042
    15  H    0.236568
    16  H    0.255572
    17  H    0.252747
    18  H    0.220554
    19  H    0.190776
    20  H    0.220703
    21  H    0.253140
    22  H    0.256010
    23  H    0.236143
    24  H    0.251263
    25  H    0.244580
 Sum of Mulliken charges =   1.00000

 Dipole moment (field-independent basis, Debye):
    X=             -0.0089    Y=              0.1815    Z=             -0.0001  Tot=              0.1818
 Quadrupole moment (field-independent basis, Debye-Ang):
   XX=            -31.3335   YY=            -56.2627   ZZ=            -84.0614
   XY=             -0.0049   XZ=              0.0085   YZ=              0.1212

 Normal termination of Gaussian 16 at Wed Jul 27 14:01:17 2022.
