 Gaussian 16, Revision C.01,
 Gaussian 16:  ES64L-G16RevC.01  3-Jul-2019

 ---------------------------------------------------------------
 #n M062X/6-311++G(d,p) TD(NStates=1) EmpiricalDispersion=GD3 SP
 ---------------------------------------------------------------

 ------
 SP_100
 ------
 Symbolic Z-matrix:
 Charge =  1 Multiplicity = 1

                         Standard orientation:
 ---------------------------------------------------------------------
 Center     Atomic      Atomic             Coordinates (Angstroms)
 Number     Number       Type             X           Y           Z
 ---------------------------------------------------------------------
      1          6           0       -2.491604   -1.360215    0.002643
      2          6           0       -3.706434   -0.671663    0.007710
      3          6           0       -3.691838    0.714186    0.007554
      4          6           0       -2.469580    1.407851   -0.003270
      5          6           0        2.470382    1.407321   -0.002056
      6          6           0        3.694484    0.713401    0.008245
      7          6           0        3.707157   -0.672445    0.007534
      8          6           0        2.492807   -1.360720   -0.000629
      9          6           0       -0.005657   -1.453378   -0.003385
     10          6           0        0.000405    1.429281   -0.009120
     11          6           0       -1.256452   -0.676896   -0.007672
     12          6           0       -1.238668    0.730976   -0.003806
     13          6           0        1.256183   -0.677164   -0.007301
     14          6           0        1.238074    0.730703   -0.002071
     15          1           0       -2.487182   -2.443363   -0.011269
     16          1           0       -4.640261   -1.211253    0.004264
     17          1           0       -4.607228    1.272831    0.004976
     18          1           0       -2.473736    2.490311    0.009612
     19          1           0        0.000394    2.510324   -0.000545
     20          1           0        2.474638    2.489774    0.011829
     21          1           0        4.610621    1.271843    0.006960
     22          1           0        4.641870   -1.212234    0.004142
     23          1           0        2.488286   -2.443862   -0.015294
     24          1           0       -0.001230   -2.138837   -0.850020
     25          1           0       -0.001741   -2.152956    0.869094
 ---------------------------------------------------------------------

 SCF Done:  E(RM062X) =  -539.759240027     A.U. after   15 cycles

 Excitation energies and oscillator strengths:

 Excited State   1:      Singlet-A      2.8099 eV  441.25 nm  f=0.0281  <S**2>=0.000
      47 -> 48         0.70427
 This state for optimization and/or second-order correction.
 Total Energy, E(TD-HF/TD-DFT) =  -539.655979385
 Copying the excited state density for this state as the 1-particle RhoCI density.

 The electronic state is 1-A.
 Alpha  occ. eigenvalues --  -10.77660 -10.73299 -10.73230 -10.72501 -10.72497
 Alpha  occ. eigenvalues --  -10.71466 -10.71429 -10.71058 -10.71046 -10.70981
 Alpha  occ. eigenvalues --  -10.70070 -10.70043 -10.69622 -10.69588  -1.16394
 Alpha  occ. eigenvalues --   -1.12307  -1.06863  -1.05782  -1.01166  -1.00197
 Alpha  occ. eigenvalues --   -0.95724  -0.91070  -0.86412  -0.85874  -0.83809
 Alpha  occ. eigenvalues --   -0.78392  -0.76015  -0.74386  -0.69572  -0.69288
 Alpha  occ. eigenvalues --   -0.68565  -0.68235  -0.68134  -0.64622  -0.64184
 Alpha  occ. eigenvalues --   -0.63147  -0.61966  -0.59943  -0.59561  -0.59132
 Alpha  occ. eigenvalues --   -0.56917  -0.55254  -0.54883  -0.52376  -0.46522
 Alpha  occ. eigenvalues --   -0.46052  -0.44431
 Alpha virt. eigenvalues --   -0.26075  -0.14757  -0.14119  -0.12869  -0.11178
 Alpha virt. eigenvalues --   -0.10082  -0.09218  -0.07997  -0.07942  -0.07471
 Alpha virt. eigenvalues --   -0.07211  -0.07149  -0.05645  -0.05582  -0.05348

 Mulliken charges:
               1
     1  C    0.082987
     2  C   -0.403105
     3  C   -0.441471
     4  C    0.027525
     5  C    0.028765
     6  C   -0.440539
     7  C   -0.399049
     8  C    0.085319
     9  C   -0.312921
    10  C    0.093621
    11  C   -0.638315
    12  C    0.669766
    13  C   -0.634391
    14  C    0.665894
    15  H    0.236842
    16  H    0.256593
    17  H    0.246046
    18  H    0.222463
    19  H    0.189284
    20  H    0.222485
    21  H    0.246456
    22  H    0.256734
    23  H    0.236800
    24  H    0.249229
    25  H    0.252984
 Sum of Mulliken charges =   1.00000

 Dipole moment (field-independent basis, Debye):
    X=              0.0067    Y=              0.1902    Z=              0.0002  Tot=              0.1903
 Quadrupole moment (field-independent basis, Debye-Ang):
   XX=            -30.9855   YY=            -56.2612   ZZ=            -84.1904
   XY=              0.0038   XZ=              0.0061   YZ=              0.0713

 Normal termination of Gaussian 16 at Wed Jul 27 13:18:26 2022.
