 Gaussian 16, Revision C.01,
 Gaussian 16:  ES64L-G16RevC.01  3-Jul-2019

 ---------------------------------------------------------------
 #n M062X/6-311++G(d,p) TD(NStates=1) EmpiricalDispersion=GD3 SP
 ---------------------------------------------------------------

 -----
 SP_75
 -----
 Symbolic Z-matrix:
 Charge =  1 Multiplicity = 1

                         Standard orientation:
 ---------------------------------------------------------------------
 Center     Atomic      Atomic             Coordinates (Angstroms)
 Number     Number       Type             X           Y           Z
 ---------------------------------------------------------------------
      1          6           0        2.492012   -1.359976   -0.001891
      2          6           0        3.695557   -0.671352    0.007483
      3          6           0        3.672177    0.714486    0.008485
      4          6           0        2.455623    1.408045   -0.001631
      5          6           0       -2.457039    1.407128   -0.003820
      6          6           0       -3.676946    0.713101    0.007237
      7          6           0       -3.696885   -0.672755    0.007786
      8          6           0       -2.494202   -1.360959    0.003979
      9          6           0        0.010174   -1.453378   -0.003161
     10          6           0       -0.000709    1.429280   -0.009183
     11          6           0        1.268037   -0.676792   -0.007129
     12          6           0        1.237113    0.731064   -0.001411
     13          6           0       -1.267548   -0.677268   -0.007817
     14          6           0       -1.236027    0.730615   -0.004540
     15          1           0        2.487412   -2.443118   -0.016818
     16          1           0        4.630979   -1.210865    0.004136
     17          1           0        4.606549    1.273199    0.007711
     18          1           0        2.460108    2.490496    0.012616
     19          1           0       -0.000689    2.510324   -0.000648
     20          1           0       -2.461716    2.489590    0.008622
     21          1           0       -4.612649    1.271475    0.004107
     22          1           0       -4.633903   -1.212622    0.004333
     23          1           0       -2.489409   -2.444109   -0.009592
     24          1           0        0.002185   -2.149075    0.869188
     25          1           0        0.003108   -2.142718   -0.849977
 ---------------------------------------------------------------------

 SCF Done:  E(RM062X) =  -539.759865001     A.U. after   15 cycles

 Excitation energies and oscillator strengths:

 Excited State   1:      Singlet-A      2.8336 eV  437.55 nm  f=0.0293  <S**2>=0.000
      47 -> 48         0.70424
 This state for optimization and/or second-order correction.
 Total Energy, E(TD-HF/TD-DFT) =  -539.655732701
 Copying the excited state density for this state as the 1-particle RhoCI density.

 The electronic state is 1-A.
 Alpha  occ. eigenvalues --  -10.77672 -10.73280 -10.73155 -10.72378 -10.72371
 Alpha  occ. eigenvalues --  -10.71324 -10.71257 -10.70978 -10.70969 -10.70948
 Alpha  occ. eigenvalues --  -10.69914 -10.69866 -10.69687 -10.69627  -1.16495
 Alpha  occ. eigenvalues --   -1.12623  -1.07030  -1.05681  -1.01472  -1.00157
 Alpha  occ. eigenvalues --   -0.95841  -0.91039  -0.86429  -0.85928  -0.83823
 Alpha  occ. eigenvalues --   -0.78414  -0.76037  -0.74449  -0.69560  -0.69226
 Alpha  occ. eigenvalues --   -0.68492  -0.68138  -0.68016  -0.64857  -0.64386
 Alpha  occ. eigenvalues --   -0.62970  -0.61757  -0.60053  -0.59792  -0.59049
 Alpha  occ. eigenvalues --   -0.56881  -0.55184  -0.54768  -0.52500  -0.46741
 Alpha  occ. eigenvalues --   -0.46044  -0.44566
 Alpha virt. eigenvalues --   -0.26104  -0.14593  -0.14079  -0.12683  -0.11181
 Alpha virt. eigenvalues --   -0.10091  -0.09242  -0.08014  -0.07957  -0.07481
 Alpha virt. eigenvalues --   -0.07209  -0.07130  -0.05641  -0.05581  -0.05318

 Mulliken charges:
               1
     1  C    0.092827
     2  C   -0.415786
     3  C   -0.441900
     4  C    0.026731
     5  C    0.026619
     6  C   -0.441166
     7  C   -0.410444
     8  C    0.096702
     9  C   -0.336277
    10  C    0.099368
    11  C   -0.621701
    12  C    0.656966
    13  C   -0.605518
    14  C    0.653990
    15  H    0.237080
    16  H    0.255758
    17  H    0.251098
    18  H    0.221179
    19  H    0.190864
    20  H    0.221341
    21  H    0.251670
    22  H    0.256240
    23  H    0.236662
    24  H    0.251034
    25  H    0.246661
 Sum of Mulliken charges =   1.00000

 Dipole moment (field-independent basis, Debye):
    X=             -0.0116    Y=              0.1841    Z=              0.0004  Tot=              0.1845
 Quadrupole moment (field-independent basis, Debye-Ang):
   XX=            -31.2466   YY=            -56.2630   ZZ=            -84.0935
   XY=             -0.0064   XZ=              0.0110   YZ=              0.0736

 Normal termination of Gaussian 16 at Wed Jul 27 14:14:45 2022.
