 Gaussian 16, Revision C.01,
 Gaussian 16:  ES64L-G16RevC.01  3-Jul-2019

 ---------------------------------------------------------------
 #n M062X/6-311++G(d,p) TD(NStates=1) EmpiricalDispersion=GD3 SP
 ---------------------------------------------------------------

 ----
 SP_2
 ----
 Symbolic Z-matrix:
 Charge =  1 Multiplicity = 1

                         Standard orientation:
 ---------------------------------------------------------------------
 Center     Atomic      Atomic             Coordinates (Angstroms)
 Number     Number       Type             X           Y           Z
 ---------------------------------------------------------------------
      1          6           0        2.492056   -1.335617   -0.003965
      2          6           0        3.701181   -0.661787   -0.033664
      3          6           0        3.684239    0.702021   -0.033055
      4          6           0        2.463867    1.382397   -0.002751
      5          6           0       -2.462509    1.432774   -0.002729
      6          6           0       -3.683550    0.725577   -0.033045
      7          6           0       -3.701830   -0.682214   -0.033673
      8          6           0       -2.493369   -1.385211   -0.003987
      9          6           0       -0.000701   -1.453429    0.029983
     10          6           0        0.000690    1.429170    0.031270
     11          6           0        1.261776   -0.671637    0.026332
     12          6           0        1.237851    0.726175    0.026956
     13          6           0       -1.262430   -0.682418    0.026327
     14          6           0       -1.237145    0.735369    0.026960
     15          1           0        2.486948   -2.386815   -0.004434
     16          1           0        4.636225   -1.191931   -0.051900
     17          1           0        4.609904    1.250182   -0.050810
     18          1           0        2.468675    2.434894   -0.002281
     19          1           0        0.001212    2.510269    0.033752
     20          1           0       -2.466272    2.545276   -0.002232
     21          1           0       -4.608676    1.294631   -0.050791
     22          1           0       -4.637395   -1.231455   -0.051918
     23          1           0       -2.489307   -2.500413   -0.004485
     24          1           0       -0.001036   -2.146213    0.889274
     25          1           0       -0.001036   -2.145445   -0.829926
 ---------------------------------------------------------------------

 SCF Done:  E(RM062X) =  -539.755205848     A.U. after   15 cycles

 Excitation energies and oscillator strengths:

 Excited State   1:      Singlet-A      2.8187 eV  439.87 nm  f=0.0295  <S**2>=0.000
      47 -> 48         0.70367
 This state for optimization and/or second-order correction.
 Total Energy, E(TD-HF/TD-DFT) =  -539.651621873
 Copying the excited state density for this state as the 1-particle RhoCI density.

 The electronic state is 1-A.
 Alpha  occ. eigenvalues --  -10.77662 -10.73718 -10.72772 -10.72763 -10.72111
 Alpha  occ. eigenvalues --  -10.71989 -10.71641 -10.70980 -10.70744 -10.70688
 Alpha  occ. eigenvalues --  -10.70368 -10.70175 -10.69250 -10.69086  -1.16461
 Alpha  occ. eigenvalues --   -1.12462  -1.06935  -1.05723  -1.01313  -1.00188
 Alpha  occ. eigenvalues --   -0.95773  -0.91048  -0.86471  -0.85885  -0.83787
 Alpha  occ. eigenvalues --   -0.78387  -0.76086  -0.74359  -0.69589  -0.69234
 Alpha  occ. eigenvalues --   -0.68514  -0.68183  -0.68100  -0.64715  -0.64248
 Alpha  occ. eigenvalues --   -0.63038  -0.61859  -0.60094  -0.59579  -0.59078
 Alpha  occ. eigenvalues --   -0.56894  -0.55203  -0.54824  -0.52436  -0.46611
 Alpha  occ. eigenvalues --   -0.46071  -0.44479
 Alpha virt. eigenvalues --   -0.26088  -0.14726  -0.14088  -0.12747  -0.11180
 Alpha virt. eigenvalues --   -0.10093  -0.09237  -0.07983  -0.07960  -0.07482
 Alpha virt. eigenvalues --   -0.07212  -0.07141  -0.05651  -0.05582  -0.05337

 Mulliken charges:
               1
     1  C    0.082550
     2  C   -0.394185
     3  C   -0.424863
     4  C   -0.020027
     5  C    0.038377
     6  C   -0.446944
     7  C   -0.414851
     8  C    0.104566
     9  C   -0.339621
    10  C    0.094603
    11  C   -0.593614
    12  C    0.659414
    13  C   -0.664292
    14  C    0.699910
    15  H    0.223817
    16  H    0.253727
    17  H    0.247221
    18  H    0.206378
    19  H    0.191074
    20  H    0.236767
    21  H    0.250543
    22  H    0.258596
    23  H    0.250628
    24  H    0.252345
    25  H    0.247883
 Sum of Mulliken charges =   1.00000

 Dipole moment (field-independent basis, Debye):
    X=             -0.2360    Y=              0.1860    Z=             -0.0313  Tot=              0.3021
 Quadrupole moment (field-independent basis, Debye-Ang):
   XX=            -31.1170   YY=            -56.2314   ZZ=            -84.1379
   XY=              0.1554   XZ=              0.0055   YZ=              0.0425

 Normal termination of Gaussian 16 at Tue Jul 26 18:12:46 2022.
