 Gaussian 16, Revision C.01,
 Gaussian 16:  ES64L-G16RevC.01  3-Jul-2019

 ---------------------------------------------------------------
 #n M062X/6-311++G(d,p) TD(NStates=1) EmpiricalDispersion=GD3 SP
 ---------------------------------------------------------------

 ----
 SP_3
 ----
 Symbolic Z-matrix:
 Charge =  1 Multiplicity = 1

                         Standard orientation:
 ---------------------------------------------------------------------
 Center     Atomic      Atomic             Coordinates (Angstroms)
 Number     Number       Type             X           Y           Z
 ---------------------------------------------------------------------
      1          6           0        2.491717   -1.276003   -0.022377
      2          6           0        3.700843   -0.603417   -0.049736
      3          6           0        3.684332    0.722355   -0.023532
      4          6           0        2.464200    1.308975    0.005891
      5          6           0       -2.462350    1.384500   -0.011737
      6          6           0       -3.683896    0.757665   -0.074231
      7          6           0       -3.702336   -0.634159   -0.052324
      8          6           0       -2.493643   -1.350513    0.008119
      9          6           0       -0.000733   -1.430339    0.043685
     10          6           0        0.001234    1.341257    0.048067
     11          6           0        1.261625   -0.696762   -0.001905
     12          6           0        1.238235    0.695996    0.036448
     13          6           0       -1.262135   -0.713100    0.079569
     14          6           0       -1.236746    0.709738    0.045668
     15          1           0        2.486359   -2.344199   -0.024038
     16          1           0        4.635568   -1.128724   -0.086310
     17          1           0        4.609659    1.241416   -0.097393
     18          1           0        2.469259    2.379471    0.007557
     19          1           0        0.002028    2.434350    0.052796
     20          1           0       -2.465826    2.545001   -0.009876
     21          1           0       -4.608796    1.307888   -0.052679
     22          1           0       -4.638159   -1.188165   -0.071456
     23          1           0       -2.489870   -2.514715    0.006250
     24          1           0        0.004131   -2.016101    0.902344
     25          1           0       -0.006426   -2.013375   -0.816822
 ---------------------------------------------------------------------

 SCF Done:  E(RM062X) =  -539.727001265     A.U. after   15 cycles

 Excitation energies and oscillator strengths:

 Excited State   1:      Singlet-A      3.0478 eV  406.80 nm  f=0.0314  <S**2>=0.000
      47 -> 48         0.69717
 This state for optimization and/or second-order correction.
 Total Energy, E(TD-HF/TD-DFT) =  -539.614995650
 Copying the excited state density for this state as the 1-particle RhoCI density.

 The electronic state is 1-A.
 Alpha  occ. eigenvalues --  -10.76862 -10.73273 -10.72372 -10.72176 -10.71952
 Alpha  occ. eigenvalues --  -10.71856 -10.71389 -10.70853 -10.70333 -10.70007
 Alpha  occ. eigenvalues --  -10.69875 -10.69450 -10.68681 -10.68232  -1.17701
 Alpha  occ. eigenvalues --   -1.13729  -1.08233  -1.06742  -1.01907  -1.01133
 Alpha  occ. eigenvalues --   -0.96315  -0.92305  -0.86714  -0.86140  -0.83617
 Alpha  occ. eigenvalues --   -0.79128  -0.77153  -0.74191  -0.70978  -0.70925
 Alpha  occ. eigenvalues --   -0.69280  -0.68306  -0.67326  -0.65525  -0.63425
 Alpha  occ. eigenvalues --   -0.62710  -0.61649  -0.61527  -0.60418  -0.59771
 Alpha  occ. eigenvalues --   -0.56479  -0.55639  -0.53274  -0.53060  -0.47489
 Alpha  occ. eigenvalues --   -0.46233  -0.45227
 Alpha virt. eigenvalues --   -0.25898  -0.14342  -0.13800  -0.12078  -0.11181
 Alpha virt. eigenvalues --   -0.09946  -0.09346  -0.08163  -0.07948  -0.07460
 Alpha virt. eigenvalues --   -0.07197  -0.06913  -0.05652  -0.05520  -0.05205

 Mulliken charges:
               1
     1  C    0.012464
     2  C   -0.416410
     3  C   -0.419693
     4  C    0.054691
     5  C    0.164010
     6  C   -0.443261
     7  C   -0.449508
     8  C    0.083363
     9  C   -0.235254
    10  C    0.116966
    11  C   -0.698452
    12  C    0.690450
    13  C   -0.712982
    14  C    0.677770
    15  H    0.223440
    16  H    0.251953
    17  H    0.232942
    18  H    0.213629
    19  H    0.181063
    20  H    0.254127
    21  H    0.234865
    22  H    0.260366
    23  H    0.261530
    24  H    0.233788
    25  H    0.228142
 Sum of Mulliken charges =   1.00000

 Dipole moment (field-independent basis, Debye):
    X=             -0.3586    Y=              0.2855    Z=             -0.0496  Tot=              0.4611
 Quadrupole moment (field-independent basis, Debye-Ang):
   XX=            -28.8020   YY=            -58.9272   ZZ=            -83.1885
   XY=              0.2161   XZ=             -0.3454   YZ=              0.0519

 Normal termination of Gaussian 16 at Tue Jul 26 19:12:58 2022.
