 Gaussian 16, Revision C.01,
 Gaussian 16:  ES64L-G16RevC.01  3-Jul-2019

 ---------------------------------------------------------------
 #n M062X/6-311++G(d,p) TD(NStates=1) EmpiricalDispersion=GD3 SP
 ---------------------------------------------------------------

 ----
 SP_2
 ----
 Symbolic Z-matrix:
 Charge =  1 Multiplicity = 1

                         Standard orientation:
 ---------------------------------------------------------------------
 Center     Atomic      Atomic             Coordinates (Angstroms)
 Number     Number       Type             X           Y           Z
 ---------------------------------------------------------------------
      1          6           0        2.492044   -1.304160   -0.014672
      2          6           0        3.701100   -0.626320   -0.033048
      3          6           0        3.684207    0.719474   -0.015841
      4          6           0        2.463871    1.341839    0.003681
      5          6           0       -2.462596    1.392197   -0.008111
      6          6           0       -3.683783    0.743013   -0.049662
      7          6           0       -3.701980   -0.646791   -0.034762
      8          6           0       -2.493338   -1.353802    0.005693
      9          6           0       -0.000560   -1.438009    0.029418
     10          6           0        0.000778    1.370589    0.031788
     11          6           0        1.261780   -0.690185   -0.001117
     12          6           0        1.237944    0.707606    0.024163
     13          6           0       -1.262224   -0.701028    0.053206
     14          6           0       -1.237047    0.716780    0.030301
     15          1           0        2.486933   -2.377357   -0.015558
     16          1           0        4.636058   -1.156445   -0.057323
     17          1           0        4.609664    1.251675   -0.065179
     18          1           0        2.468683    2.416337    0.004570
     19          1           0        0.001305    2.459687    0.034706
     20          1           0       -2.466355    2.526698   -0.007137
     21          1           0       -4.608871    1.296042   -0.035408
     22          1           0       -4.637599   -1.196035   -0.047397
     23          1           0       -2.489280   -2.491003    0.004715
     24          1           0        0.002663   -2.059136    0.888487
     25          1           0       -0.004374   -2.057682   -0.830698
 ---------------------------------------------------------------------

 SCF Done:  E(RM062X) =  -539.747154796     A.U. after   15 cycles

 Excitation energies and oscillator strengths:

 Excited State   1:      Singlet-A      2.9804 eV  416.00 nm  f=0.0295  <S**2>=0.000
      47 -> 48         0.70221
 This state for optimization and/or second-order correction.
 Total Energy, E(TD-HF/TD-DFT) =  -539.637627088
 Copying the excited state density for this state as the 1-particle RhoCI density.

 The electronic state is 1-A.
 Alpha  occ. eigenvalues --  -10.77129 -10.73252 -10.72382 -10.72305 -10.71902
 Alpha  occ. eigenvalues --  -10.71728 -10.71626 -10.70664 -10.70553 -10.70335
 Alpha  occ. eigenvalues --  -10.69944 -10.69778 -10.69106 -10.68682  -1.17258
 Alpha  occ. eigenvalues --   -1.13297  -1.07749  -1.06456  -1.01536  -1.00984
 Alpha  occ. eigenvalues --   -0.96130  -0.91898  -0.86456  -0.86221  -0.83661
 Alpha  occ. eigenvalues --   -0.78880  -0.76786  -0.74278  -0.70411  -0.69932
 Alpha  occ. eigenvalues --   -0.69229  -0.68238  -0.67815  -0.64900  -0.63772
 Alpha  occ. eigenvalues --   -0.63271  -0.61709  -0.61042  -0.60208  -0.59591
 Alpha  occ. eigenvalues --   -0.56279  -0.55739  -0.53957  -0.52857  -0.47167
 Alpha  occ. eigenvalues --   -0.46198  -0.45015
 Alpha virt. eigenvalues --   -0.25952  -0.14266  -0.14040  -0.12311  -0.11179
 Alpha virt. eigenvalues --   -0.09986  -0.09301  -0.08101  -0.07928  -0.07461
 Alpha virt. eigenvalues --   -0.07195  -0.07002  -0.05643  -0.05538  -0.05240

 Mulliken charges:
               1
     1  C    0.058936
     2  C   -0.416639
     3  C   -0.429131
     4  C    0.046820
     5  C    0.121762
     6  C   -0.447041
     7  C   -0.439399
     8  C    0.094570
     9  C   -0.240721
    10  C    0.111231
    11  C   -0.700063
    12  C    0.692428
    13  C   -0.733661
    14  C    0.689027
    15  H    0.227711
    16  H    0.253356
    17  H    0.239319
    18  H    0.216504
    19  H    0.182330
    20  H    0.244744
    21  H    0.241045
    22  H    0.258775
    23  H    0.253707
    24  H    0.239180
    25  H    0.235209
 Sum of Mulliken charges =   1.00000

 Dipole moment (field-independent basis, Debye):
    X=             -0.2385    Y=              0.2525    Z=             -0.0323  Tot=              0.3488
 Quadrupole moment (field-independent basis, Debye-Ang):
   XX=            -29.5796   YY=            -58.0483   ZZ=            -83.5030
   XY=              0.1479   XZ=             -0.2390   YZ=              0.0379

 Normal termination of Gaussian 16 at Tue Jul 26 18:26:09 2022.
