 Gaussian 16, Revision C.01,
 Gaussian 16:  ES64L-G16RevC.01  3-Jul-2019

 ---------------------------------------------------------------
 #n M062X/6-311++G(d,p) TD(NStates=1) EmpiricalDispersion=GD3 SP
 ---------------------------------------------------------------

 ----
 SP_3
 ----
 Symbolic Z-matrix:
 Charge =  1 Multiplicity = 1

                         Standard orientation:
 ---------------------------------------------------------------------
 Center     Atomic      Atomic             Coordinates (Angstroms)
 Number     Number       Type             X           Y           Z
 ---------------------------------------------------------------------
      1          6           0        2.491736   -1.291745   -0.016892
      2          6           0        3.700887   -0.621167   -0.049991
      3          6           0        3.684306    0.713624   -0.032230
      4          6           0        2.464175    1.329253    0.002546
      5          6           0       -2.462262    1.404789   -0.009191
      6          6           0       -3.683671    0.748933   -0.066023
      7          6           0       -3.702206   -0.651873   -0.051724
      8          6           0       -2.493677   -1.366208    0.003422
      9          6           0       -0.000840   -1.438041    0.044127
     10          6           0        0.001168    1.370556    0.047682
     11          6           0        1.261672   -0.687502    0.011910
     12          6           0        1.238166    0.705284    0.037774
     13          6           0       -1.262339   -0.703767    0.066223
     14          6           0       -1.236821    0.719045    0.043923
     15          1           0        2.486380   -2.348941   -0.018211
     16          1           0        4.635685   -1.146493   -0.083485
     17          1           0        4.609850    1.240637   -0.090351
     18          1           0        2.469232    2.388749    0.003870
     19          1           0        0.001958    2.459651    0.052060
     20          1           0       -2.465741    2.554291   -0.007718
     21          1           0       -4.608660    1.307188   -0.060528
     22          1           0       -4.637997   -1.205878   -0.073597
     23          1           0       -2.489901   -2.519410    0.001944
     24          1           0        0.002236   -2.059531    0.902934
     25          1           0       -0.004802   -2.057350   -0.816251
 ---------------------------------------------------------------------

 SCF Done:  E(RM062X) =  -539.741012262     A.U. after   15 cycles

 Excitation energies and oscillator strengths:

 Excited State   1:      Singlet-A      2.9744 eV  416.83 nm  f=0.0310  <S**2>=0.000
      47 -> 48         0.70043
 This state for optimization and/or second-order correction.
 Total Energy, E(TD-HF/TD-DFT) =  -539.631703527
 Copying the excited state density for this state as the 1-particle RhoCI density.

 The electronic state is 1-A.
 Alpha  occ. eigenvalues --  -10.77122 -10.73493 -10.72547 -10.72207 -10.72075
 Alpha  occ. eigenvalues --  -10.71948 -10.71567 -10.70910 -10.70352 -10.70052
 Alpha  occ. eigenvalues --  -10.70013 -10.69945 -10.68742 -10.68411  -1.17286
 Alpha  occ. eigenvalues --   -1.13294  -1.07731  -1.06450  -1.01543  -1.00979
 Alpha  occ. eigenvalues --   -0.96120  -0.91888  -0.86455  -0.86257  -0.83630
 Alpha  occ. eigenvalues --   -0.78866  -0.76840  -0.74225  -0.70454  -0.69931
 Alpha  occ. eigenvalues --   -0.69223  -0.68222  -0.67809  -0.64860  -0.63745
 Alpha  occ. eigenvalues --   -0.63229  -0.61698  -0.61110  -0.60129  -0.59572
 Alpha  occ. eigenvalues --   -0.56272  -0.55733  -0.53935  -0.52855  -0.47152
 Alpha  occ. eigenvalues --   -0.46217  -0.44979
 Alpha virt. eigenvalues --   -0.25952  -0.14325  -0.14048  -0.12271  -0.11180
 Alpha virt. eigenvalues --   -0.09995  -0.09310  -0.08100  -0.07920  -0.07470
 Alpha virt. eigenvalues --   -0.07205  -0.06995  -0.05652  -0.05539  -0.05245

 Mulliken charges:
               1
     1  C    0.052762
     2  C   -0.408204
     3  C   -0.420270
     4  C    0.023786
     5  C    0.134488
     6  C   -0.447975
     7  C   -0.441426
     8  C    0.103440
     9  C   -0.242647
    10  C    0.114105
    11  C   -0.683092
    12  C    0.680193
    13  C   -0.731952
    14  C    0.676103
    15  H    0.221024
    16  H    0.251790
    17  H    0.238900
    18  H    0.208829
    19  H    0.183157
    20  H    0.251028
    21  H    0.241529
    22  H    0.259929
    23  H    0.259748
    24  H    0.240317
    25  H    0.234437
 Sum of Mulliken charges =   1.00000

 Dipole moment (field-independent basis, Debye):
    X=             -0.3573    Y=              0.2503    Z=             -0.0486  Tot=              0.4390
 Quadrupole moment (field-independent basis, Debye-Ang):
   XX=            -29.5815   YY=            -58.0103   ZZ=            -83.4975
   XY=              0.2217   XZ=             -0.2309   YZ=              0.0568

 Normal termination of Gaussian 16 at Tue Jul 26 19:06:14 2022.
