 Gaussian 16, Revision C.01,
 Gaussian 16:  ES64L-G16RevC.01  3-Jul-2019

 ---------------------------------------------------------------
 #n M062X/6-311++G(d,p) TD(NStates=1) EmpiricalDispersion=GD3 SP
 ---------------------------------------------------------------

 ----
 SP_1
 ----
 Symbolic Z-matrix:
 Charge =  1 Multiplicity = 1

                         Standard orientation:
 ---------------------------------------------------------------------
 Center     Atomic      Atomic             Coordinates (Angstroms)
 Number     Number       Type             X           Y           Z
 ---------------------------------------------------------------------
      1          6           0        2.492335   -1.300849   -0.017674
      2          6           0        3.701330   -0.613736   -0.015733
      3          6           0        3.684197    0.734055    0.009084
      4          6           0        2.463606    1.334145    0.007895
      5          6           0       -2.462990    1.359320   -0.009845
      6          6           0       -3.684051    0.745825   -0.041673
      7          6           0       -3.701828   -0.623983   -0.018287
      8          6           0       -2.492977   -1.325686    0.012922
      9          6           0       -0.000244   -1.430276    0.014562
     10          6           0        0.000411    1.341323    0.016022
     11          6           0        1.261789   -0.702152   -0.027802
     12          6           0        1.237743    0.700634    0.009087
     13          6           0       -1.261959   -0.707598    0.053691
     14          6           0       -1.237247    0.705215    0.018285
     15          1           0        2.487475   -2.401048   -0.018225
     16          1           0        4.636412   -1.148648   -0.033757
     17          1           0        4.609391    1.263466   -0.047317
     18          1           0        2.468166    2.434644    0.008448
     19          1           0        0.000676    2.434423    0.017598
     20          1           0       -2.467022    2.489820   -0.009223
     21          1           0       -4.609104    1.285623   -0.002707
     22          1           0       -4.637276   -1.168462   -0.018831
     23          1           0       -2.488645   -2.457887    0.012297
     24          1           0        0.004895   -2.015130    0.873838
     25          1           0       -0.005660   -2.014222   -0.845329
 ---------------------------------------------------------------------

 SCF Done:  E(RM062X) =  -539.736719975     A.U. after   15 cycles

 Excitation energies and oscillator strengths:

 Excited State   1:      Singlet-A      3.0582 eV  405.41 nm  f=0.0283  <S**2>=0.000
      47 -> 48         0.70286
 This state for optimization and/or second-order correction.
 Total Energy, E(TD-HF/TD-DFT) =  -539.624331413
 Copying the excited state density for this state as the 1-particle RhoCI density.

 The electronic state is 1-A.
 Alpha  occ. eigenvalues --  -10.76872 -10.72791 -10.72318 -10.72040 -10.71712
 Alpha  occ. eigenvalues --  -10.71568 -10.71304 -10.70952 -10.70655 -10.70135
 Alpha  occ. eigenvalues --  -10.69449 -10.69410 -10.69325 -10.68777  -1.17653
 Alpha  occ. eigenvalues --   -1.13733  -1.08267  -1.06751  -1.01889  -1.01145
 Alpha  occ. eigenvalues --   -0.96332  -0.92323  -0.86733  -0.86067  -0.83665
 Alpha  occ. eigenvalues --   -0.79151  -0.77074  -0.74267  -0.70929  -0.70904
 Alpha  occ. eigenvalues --   -0.69287  -0.68338  -0.67335  -0.65593  -0.63469
 Alpha  occ. eigenvalues --   -0.62773  -0.61654  -0.61433  -0.60543  -0.59803
 Alpha  occ. eigenvalues --   -0.56499  -0.55641  -0.53303  -0.53067  -0.47510
 Alpha  occ. eigenvalues --   -0.46195  -0.45294
 Alpha virt. eigenvalues --   -0.25897  -0.14297  -0.13727  -0.12151  -0.11179
 Alpha virt. eigenvalues --   -0.09932  -0.09332  -0.08164  -0.07960  -0.07447
 Alpha virt. eigenvalues --   -0.07183  -0.06927  -0.05638  -0.05520  -0.05198

 Mulliken charges:
               1
     1  C    0.030087
     2  C   -0.432294
     3  C   -0.433943
     4  C    0.094671
     5  C    0.132135
     6  C   -0.441104
     7  C   -0.443949
     8  C    0.056098
     9  C   -0.243040
    10  C    0.112343
    11  C   -0.710472
    12  C    0.710972
    13  C   -0.716144
    14  C    0.706193
    15  H    0.236837
    16  H    0.255098
    17  H    0.233443
    18  H    0.228345
    19  H    0.179978
    20  H    0.241909
    21  H    0.234056
    22  H    0.257908
    23  H    0.249666
    24  H    0.231571
    25  H    0.229636
 Sum of Mulliken charges =   1.00000

 Dipole moment (field-independent basis, Debye):
    X=             -0.1197    Y=              0.2889    Z=             -0.0165  Tot=              0.3131
 Quadrupole moment (field-independent basis, Debye-Ang):
   XX=            -28.7967   YY=            -58.9879   ZZ=            -83.1975
   XY=              0.0721   XZ=             -0.3592   YZ=              0.0173

 Normal termination of Gaussian 16 at Tue Jul 26 17:55:31 2022.
