 Gaussian 16, Revision C.01,
 Gaussian 16:  ES64L-G16RevC.01  3-Jul-2019

 ---------------------------------------------------------------
 #n M062X/6-311++G(d,p) TD(NStates=1) EmpiricalDispersion=GD3 SP
 ---------------------------------------------------------------

 ----
 SP_3
 ----
 Symbolic Z-matrix:
 Charge =  1 Multiplicity = 1

                         Standard orientation:
 ---------------------------------------------------------------------
 Center     Atomic      Atomic             Coordinates (Angstroms)
 Number     Number       Type             X           Y           Z
 ---------------------------------------------------------------------
      1          6           0        2.491688   -1.260258   -0.027868
      2          6           0        3.700816   -0.585667   -0.049477
      3          6           0        3.684407    0.731081   -0.014821
      4          6           0        2.464247    1.288696    0.009238
      5          6           0       -2.462460    1.364212   -0.014279
      6          6           0       -3.684171    0.766402   -0.082423
      7          6           0       -3.702483   -0.616444   -0.052919
      8          6           0       -2.493599   -1.334823    0.012810
      9          6           0       -0.000626   -1.422638    0.043231
     10          6           0        0.001301    1.311957    0.048450
     11          6           0        1.261527   -0.706013   -0.015734
     12          6           0        1.238303    0.686709    0.035124
     13          6           0       -1.261880   -0.722442    0.092900
     14          6           0       -1.236671    0.700430    0.047416
     15          1           0        2.486327   -2.339452   -0.029890
     16          1           0        4.635461   -1.110951   -0.089137
     17          1           0        4.609456    1.242202   -0.104420
     18          1           0        2.469309    2.370191    0.011267
     19          1           0        0.002098    2.409049    0.053544
     20          1           0       -2.465935    2.535713   -0.012008
     21          1           0       -4.608921    1.308583   -0.044812
     22          1           0       -4.638331   -1.170455   -0.069318
     23          1           0       -2.489827   -2.510024    0.010529
     24          1           0        0.006026   -1.972682    0.901754
     25          1           0       -0.008051   -1.969391   -0.817386
 ---------------------------------------------------------------------

 SCF Done:  E(RM062X) =  -539.706137174     A.U. after   15 cycles

 Excitation energies and oscillator strengths:

 Excited State   1:      Singlet-A      3.1160 eV  397.89 nm  f=0.0320  <S**2>=0.000
      46 -> 48         0.13944
      47 -> 48         0.68971
 This state for optimization and/or second-order correction.
 Total Energy, E(TD-HF/TD-DFT) =  -539.591624930
 Copying the excited state density for this state as the 1-particle RhoCI density.

 The electronic state is 1-A.
 Alpha  occ. eigenvalues --  -10.76607 -10.73063 -10.72223 -10.72142 -10.71965
 Alpha  occ. eigenvalues --  -10.71649 -10.71222 -10.70803 -10.70329 -10.70011
 Alpha  occ. eigenvalues --  -10.69713 -10.68975 -10.68628 -10.68071  -1.18128
 Alpha  occ. eigenvalues --   -1.14177  -1.08782  -1.07002  -1.02379  -1.01183
 Alpha  occ. eigenvalues --   -0.96523  -0.92714  -0.86979  -0.86004  -0.83645
 Alpha  occ. eigenvalues --   -0.79397  -0.77440  -0.74165  -0.71978  -0.71512
 Alpha  occ. eigenvalues --   -0.69373  -0.68414  -0.66805  -0.66254  -0.62987
 Alpha  occ. eigenvalues --   -0.62189  -0.61958  -0.61591  -0.60670  -0.59901
 Alpha  occ. eigenvalues --   -0.56933  -0.55289  -0.53270  -0.52570  -0.47840
 Alpha  occ. eigenvalues --   -0.46242  -0.45459
 Alpha virt. eigenvalues --   -0.25854  -0.14415  -0.13511  -0.11910  -0.11179
 Alpha virt. eigenvalues --   -0.09900  -0.09387  -0.08227  -0.07997  -0.07451
 Alpha virt. eigenvalues --   -0.07190  -0.06830  -0.05654  -0.05504  -0.05173

 Mulliken charges:
               1
     1  C   -0.038683
     2  C   -0.418340
     3  C   -0.413730
     4  C    0.075942
     5  C    0.179656
     6  C   -0.436632
     7  C   -0.450246
     8  C    0.059855
     9  C   -0.281592
    10  C    0.104193
    11  C   -0.668768
    12  C    0.696474
    13  C   -0.655465
    14  C    0.685084
    15  H    0.226250
    16  H    0.252350
    17  H    0.226305
    18  H    0.217664
    19  H    0.180613
    20  H    0.256475
    21  H    0.227774
    22  H    0.260948
    23  H    0.263408
    24  H    0.227962
    25  H    0.222501
 Sum of Mulliken charges =   1.00000

 Dipole moment (field-independent basis, Debye):
    X=             -0.3596    Y=              0.3228    Z=             -0.0508  Tot=              0.4859
 Quadrupole moment (field-independent basis, Debye-Ang):
   XX=            -28.0182   YY=            -59.8527   ZZ=            -82.8858
   XY=              0.2106   XZ=             -0.4547   YZ=              0.0462

 Normal termination of Gaussian 16 at Tue Jul 26 19:19:53 2022.
