 Gaussian 16, Revision C.01,
 Gaussian 16:  ES64L-G16RevC.01  3-Jul-2019

 ---------------------------------------------------------------
 #n M062X/6-311++G(d,p) TD(NStates=1) EmpiricalDispersion=GD3 SP
 ---------------------------------------------------------------

 ----
 SP_5
 ----
 Symbolic Z-matrix:
 Charge =  1 Multiplicity = 1

                         Standard orientation:
 ---------------------------------------------------------------------
 Center     Atomic      Atomic             Coordinates (Angstroms)
 Number     Number       Type             X           Y           Z
 ---------------------------------------------------------------------
      1          6           0        2.491123   -1.251150   -0.027034
      2          6           0        3.700366   -0.593028   -0.083723
      3          6           0        3.684456    0.710723   -0.056176
      4          6           0        2.464770    1.283810    0.003834
      5          6           0       -2.461687    1.409686   -0.013570
      6          6           0       -3.683730    0.769575   -0.106758
      7          6           0       -3.702855   -0.644262   -0.086381
      8          6           0       -2.494334   -1.375331    0.003264
      9          6           0       -0.001222   -1.430465    0.072804
     10          6           0        0.002057    1.341123    0.080116
     11          6           0        1.261465   -0.691427    0.024001
     12          6           0        1.238723    0.691300    0.063800
     13          6           0       -1.262315   -0.718656    0.105435
     14          6           0       -1.236242    0.714205    0.073064
     15          1           0        2.485297   -2.287340   -0.029740
     16          1           0        4.634744   -1.108691   -0.138828
     17          1           0        4.609907    1.219471   -0.147517
     18          1           0        2.470301    2.324301    0.006553
     19          1           0        0.003382    2.434206    0.087999
     20          1           0       -2.464578    2.600186   -0.010403
     21          1           0       -4.608468    1.330261   -0.102594
     22          1           0       -4.639063   -1.207757   -0.124121
     23          1           0       -2.491149   -2.571532    0.000080
     24          1           0        0.003367   -2.017137    0.930843
     25          1           0       -0.007194   -2.012589   -0.788318
 ---------------------------------------------------------------------

 SCF Done:  E(RM062X) =  -539.707427593     A.U. after   15 cycles

 Excitation energies and oscillator strengths:

 Excited State   1:      Singlet-A      3.0273 eV  409.56 nm  f=0.0368  <S**2>=0.000
      46 -> 48        -0.13203
      47 -> 48         0.69141
 This state for optimization and/or second-order correction.
 Total Energy, E(TD-HF/TD-DFT) =  -539.596176764
 Copying the excited state density for this state as the 1-particle RhoCI density.

 The electronic state is 1-A.
 Alpha  occ. eigenvalues --  -10.76841 -10.73759 -10.72800 -10.72682 -10.72597
 Alpha  occ. eigenvalues --  -10.71560 -10.71408 -10.71073 -10.70424 -10.69714
 Alpha  occ. eigenvalues --  -10.69450 -10.69366 -10.67949 -10.67694  -1.17797
 Alpha  occ. eigenvalues --   -1.13723  -1.08166  -1.06724  -1.01939  -1.01110
 Alpha  occ. eigenvalues --   -0.96280  -0.92271  -0.86692  -0.86260  -0.83527
 Alpha  occ. eigenvalues --   -0.79083  -0.77301  -0.74053  -0.71110  -0.70922
 Alpha  occ. eigenvalues --   -0.69267  -0.68244  -0.67305  -0.65392  -0.63333
 Alpha  occ. eigenvalues --   -0.62590  -0.61734  -0.61567  -0.60222  -0.59706
 Alpha  occ. eigenvalues --   -0.56440  -0.55634  -0.53228  -0.53037  -0.47448
 Alpha  occ. eigenvalues --   -0.46293  -0.45105
 Alpha virt. eigenvalues --   -0.25901  -0.14437  -0.13917  -0.11954  -0.11185
 Alpha virt. eigenvalues --   -0.09977  -0.09377  -0.08161  -0.07926  -0.07487
 Alpha virt. eigenvalues --   -0.07226  -0.06886  -0.05678  -0.05525  -0.05221

 Mulliken charges:
               1
     1  C    0.005008
     2  C   -0.397127
     3  C   -0.397796
     4  C    0.014235
     5  C    0.187498
     6  C   -0.442400
     7  C   -0.447660
     8  C    0.103745
     9  C   -0.230325
    10  C    0.124162
    11  C   -0.674958
    12  C    0.646010
    13  C   -0.693747
    14  C    0.632510
    15  H    0.209939
    16  H    0.248514
    17  H    0.232464
    18  H    0.198094
    19  H    0.183196
    20  H    0.264832
    21  H    0.235937
    22  H    0.262510
    23  H    0.272119
    24  H    0.236103
    25  H    0.227138
 Sum of Mulliken charges =   1.00000

 Dipole moment (field-independent basis, Debye):
    X=             -0.5955    Y=              0.2789    Z=             -0.0831  Tot=              0.6628
 Quadrupole moment (field-independent basis, Debye-Ang):
   XX=            -28.8125   YY=            -58.8061   ZZ=            -83.1704
   XY=              0.3595   XZ=             -0.3179   YZ=              0.0865

 Normal termination of Gaussian 16 at Tue Jul 26 20:32:06 2022.
