 Gaussian 16, Revision C.01,
 Gaussian 16:  ES64L-G16RevC.01  3-Jul-2019

 ---------------------------------------------------------------
 #n M062X/6-311++G(d,p) TD(NStates=1) EmpiricalDispersion=GD3 SP
 ---------------------------------------------------------------

 ----
 SP_5
 ----
 Symbolic Z-matrix:
 Charge =  1 Multiplicity = 1

                         Standard orientation:
 ---------------------------------------------------------------------
 Center     Atomic      Atomic             Coordinates (Angstroms)
 Number     Number       Type             X           Y           Z
 ---------------------------------------------------------------------
      1          6           0        2.491137   -1.266911   -0.021305
      2          6           0        3.700468   -0.610818   -0.083869
      3          6           0        3.684497    0.701965   -0.065024
      4          6           0        2.464766    1.304082    0.000246
      5          6           0       -2.461577    1.429977   -0.011314
      6          6           0       -3.683438    0.760815   -0.098727
      7          6           0       -3.702668   -0.661994   -0.085660
      8          6           0       -2.494373   -1.391014   -0.001151
      9          6           0       -0.001400   -1.438142    0.073541
     10          6           0        0.001947    1.370450    0.079473
     11          6           0        1.261460   -0.682169    0.037969
     12          6           0        1.238606    0.700605    0.064990
     13          6           0       -1.262572   -0.709277    0.092249
     14          6           0       -1.236364    0.723541    0.071174
     15          1           0        2.485315   -2.292103   -0.023451
     16          1           0        4.634953   -1.126523   -0.135788
     17          1           0        4.610207    1.218624   -0.140723
     18          1           0        2.470293    2.333574    0.002402
     19          1           0        0.003265    2.459536    0.086773
     20          1           0       -2.464472    2.609478   -0.008805
     21          1           0       -4.608223    1.329544   -0.110736
     22          1           0       -4.638808   -1.225495   -0.126020
     23          1           0       -2.491185   -2.576216   -0.003672
     24          1           0        0.001381   -2.060360    0.931822
     25          1           0       -0.005659   -2.056721   -0.787360
 ---------------------------------------------------------------------

 SCF Done:  E(RM062X) =  -539.721232102     A.U. after   15 cycles

 Excitation energies and oscillator strengths:

 Excited State   1:      Singlet-A      2.9556 eV  419.49 nm  f=0.0352  <S**2>=0.000
      46 -> 48        -0.10137
      47 -> 48         0.69672
 This state for optimization and/or second-order correction.
 Total Energy, E(TD-HF/TD-DFT) =  -539.612616109
 Copying the excited state density for this state as the 1-particle RhoCI density.

 The electronic state is 1-A.
 Alpha  occ. eigenvalues --  -10.77101 -10.73980 -10.72888 -10.72802 -10.72588
 Alpha  occ. eigenvalues --  -10.71626 -10.71617 -10.71251 -10.70600 -10.69945
 Alpha  occ. eigenvalues --  -10.69730 -10.69374 -10.68013 -10.67872  -1.17374
 Alpha  occ. eigenvalues --   -1.13284  -1.07675  -1.06430  -1.01566  -1.00966
 Alpha  occ. eigenvalues --   -0.96086  -0.91855  -0.86534  -0.86286  -0.83537
 Alpha  occ. eigenvalues --   -0.78820  -0.76998  -0.74072  -0.70582  -0.69929
 Alpha  occ. eigenvalues --   -0.69209  -0.68171  -0.67790  -0.64738  -0.63654
 Alpha  occ. eigenvalues --   -0.63100  -0.61663  -0.61277  -0.59930  -0.59511
 Alpha  occ. eigenvalues --   -0.56248  -0.55714  -0.53868  -0.52849  -0.47107
 Alpha  occ. eigenvalues --   -0.46271  -0.44873
 Alpha virt. eigenvalues --   -0.25953  -0.14493  -0.14079  -0.12158  -0.11184
 Alpha virt. eigenvalues --   -0.10024  -0.09341  -0.08098  -0.07894  -0.07497
 Alpha virt. eigenvalues --   -0.07233  -0.06972  -0.05678  -0.05544  -0.05262

 Mulliken charges:
               1
     1  C    0.044967
     2  C   -0.388853
     3  C   -0.396913
     4  C   -0.024477
     5  C    0.151463
     6  C   -0.446786
     7  C   -0.440382
     8  C    0.116844
     9  C   -0.253509
    10  C    0.121380
    11  C   -0.639116
    12  C    0.641405
    13  C   -0.712998
    14  C    0.640183
    15  H    0.207752
    16  H    0.248418
    17  H    0.238037
    18  H    0.193019
    19  H    0.185666
    20  H    0.262485
    21  H    0.242617
    22  H    0.262031
    23  H    0.270958
    24  H    0.242625
    25  H    0.233182
 Sum of Mulliken charges =   1.00000

 Dipole moment (field-independent basis, Debye):
    X=             -0.5933    Y=              0.2434    Z=             -0.0814  Tot=              0.6464
 Quadrupole moment (field-independent basis, Debye-Ang):
   XX=            -29.5875   YY=            -57.8892   ZZ=            -83.4798
   XY=              0.3688   XZ=             -0.2051   YZ=              0.0944

 Normal termination of Gaussian 16 at Tue Jul 26 20:25:07 2022.
