 Gaussian 16, Revision C.01,
 Gaussian 16:  ES64L-G16RevC.01  3-Jul-2019

 ---------------------------------------------------------------
 #n M062X/6-311++G(d,p) TD(NStates=1) EmpiricalDispersion=GD3 SP
 ---------------------------------------------------------------

 ----
 SP_4
 ----
 Symbolic Z-matrix:
 Charge =  1 Multiplicity = 1

                         Standard orientation:
 ---------------------------------------------------------------------
 Center     Atomic      Atomic             Coordinates (Angstroms)
 Number     Number       Type             X           Y           Z
 ---------------------------------------------------------------------
      1          6           0        2.491433   -1.279329   -0.019103
      2          6           0        3.700676   -0.615999   -0.066932
      3          6           0        3.684403    0.707788   -0.048625
      4          6           0        2.464473    1.316667    0.001401
      5          6           0       -2.461923    1.417382   -0.010258
      6          6           0       -3.683556    0.754867   -0.082378
      7          6           0       -3.702436   -0.656941   -0.068690
      8          6           0       -2.494022   -1.378612    0.001141
      9          6           0       -0.001120   -1.438085    0.058835
     10          6           0        0.001557    1.370510    0.063577
     11          6           0        1.261565   -0.684830    0.024939
     12          6           0        1.238386    0.702950    0.051383
     13          6           0       -1.262455   -0.706516    0.079237
     14          6           0       -1.236593    0.721298    0.057547
     15          1           0        2.485841   -2.320522   -0.020842
     16          1           0        4.635317   -1.136519   -0.109640
     17          1           0        4.610031    1.229620   -0.115532
     18          1           0        2.469769    2.361161    0.003147
     19          1           0        0.002611    2.459601    0.069416
     20          1           0       -2.465113    2.581884   -0.008274
     21          1           0       -4.608444    1.318355   -0.085638
     22          1           0       -4.638400   -1.215697   -0.099804
     23          1           0       -2.490536   -2.547814   -0.000852
     24          1           0        0.001809   -2.059939    0.917379
     25          1           0       -0.005230   -2.057029   -0.801805
 ---------------------------------------------------------------------

 SCF Done:  E(RM062X) =  -539.732381945     A.U. after   15 cycles

 Excitation energies and oscillator strengths:

 Excited State   1:      Singlet-A      2.9662 eV  418.00 nm  f=0.0329  <S**2>=0.000
      47 -> 48         0.69851
 This state for optimization and/or second-order correction.
 Total Energy, E(TD-HF/TD-DFT) =  -539.623377806
 Copying the excited state density for this state as the 1-particle RhoCI density.

 The electronic state is 1-A.
 Alpha  occ. eigenvalues --  -10.77113 -10.73736 -10.72713 -10.72510 -10.72268
 Alpha  occ. eigenvalues --  -10.71848 -10.71408 -10.71264 -10.70326 -10.70041
 Alpha  occ. eigenvalues --  -10.69945 -10.69693 -10.68377 -10.68140  -1.17325
 Alpha  occ. eigenvalues --   -1.13289  -1.07706  -1.06441  -1.01553  -1.00974
 Alpha  occ. eigenvalues --   -0.96105  -0.91873  -0.86475  -0.86286  -0.83588
 Alpha  occ. eigenvalues --   -0.78846  -0.76912  -0.74156  -0.70512  -0.69930
 Alpha  occ. eigenvalues --   -0.69216  -0.68199  -0.67801  -0.64806  -0.63706
 Alpha  occ. eigenvalues --   -0.63171  -0.61683  -0.61190  -0.60035  -0.59545
 Alpha  occ. eigenvalues --   -0.56261  -0.55725  -0.53905  -0.52852  -0.47132
 Alpha  occ. eigenvalues --   -0.46242  -0.44932
 Alpha virt. eigenvalues --   -0.25953  -0.14402  -0.14061  -0.12219  -0.11182
 Alpha virt. eigenvalues --   -0.10007  -0.09323  -0.08099  -0.07909  -0.07482
 Alpha virt. eigenvalues --   -0.07217  -0.06985  -0.05664  -0.05540  -0.05253

 Mulliken charges:
               1
     1  C    0.048163
     2  C   -0.398936
     3  C   -0.409504
     4  C   -0.000121
     5  C    0.144400
     6  C   -0.447842
     7  C   -0.441736
     8  C    0.111018
     9  C   -0.246619
    10  C    0.117629
    11  C   -0.662796
    12  C    0.663037
    13  C   -0.725202
    14  C    0.659505
    15  H    0.214364
    16  H    0.250142
    17  H    0.238474
    18  H    0.200990
    19  H    0.184281
    20  H    0.256948
    21  H    0.242050
    22  H    0.261012
    23  H    0.265510
    24  H    0.241471
    25  H    0.233763
 Sum of Mulliken charges =   1.00000

 Dipole moment (field-independent basis, Debye):
    X=             -0.4757    Y=              0.2473    Z=             -0.0649  Tot=              0.5400
 Quadrupole moment (field-independent basis, Debye-Ang):
   XX=            -29.5842   YY=            -57.9571   ZZ=            -83.4898
   XY=              0.2954   XZ=             -0.2196   YZ=              0.0756

 Normal termination of Gaussian 16 at Tue Jul 26 19:44:39 2022.
