 Gaussian 16, Revision C.01,
 Gaussian 16:  ES64L-G16RevC.01  3-Jul-2019

 ---------------------------------------------------------------
 #n M062X/6-311++G(d,p) TD(NStates=1) EmpiricalDispersion=GD3 SP
 ---------------------------------------------------------------

 ----
 SP_5
 ----
 Symbolic Z-matrix:
 Charge =  1 Multiplicity = 1

                         Standard orientation:
 ---------------------------------------------------------------------
 Center     Atomic      Atomic             Coordinates (Angstroms)
 Number     Number       Type             X           Y           Z
 ---------------------------------------------------------------------
      1          6           0        2.491063   -1.219606   -0.038520
      2          6           0        3.700214   -0.557442   -0.083411
      3          6           0        3.684523    0.728218   -0.038409
      4          6           0        2.464845    1.243258    0.011021
      5          6           0       -2.461972    1.369111   -0.018061
      6          6           0       -3.684466    0.787125   -0.122740
      7          6           0       -3.703282   -0.608795   -0.087799
      8          6           0       -2.494224   -1.343985    0.012060
      9          6           0       -0.000865   -1.415114    0.071266
     10          6           0        0.002279    1.282465    0.081387
     11          6           0        1.261326   -0.709898   -0.004008
     12          6           0        1.238953    0.672694    0.061428
     13          6           0       -1.261649   -0.737466    0.131730
     14          6           0       -1.235994    0.695521    0.076857
     15          1           0        2.485230   -2.277792   -0.042443
     16          1           0        4.634352   -1.073004   -0.144920
     17          1           0        4.609272    1.221204   -0.161030
     18          1           0        2.470384    2.305745    0.014963
     19          1           0        0.003614    2.383538    0.090518
     20          1           0       -2.464859    2.581607   -0.013467
     21          1           0       -4.608927    1.331670   -0.086222
     22          1           0       -4.639600   -1.172286   -0.120334
     23          1           0       -2.491044   -2.562181    0.007443
     24          1           0        0.007339   -1.930745    0.928892
     25          1           0       -0.010264   -1.924275   -0.790205
 ---------------------------------------------------------------------

 SCF Done:  E(RM062X) =  -539.659122410     A.U. after   16 cycles

 Excitation energies and oscillator strengths:

 Excited State   1:      Singlet-A      3.1537 eV  393.13 nm  f=0.0425  <S**2>=0.000
      46 -> 48         0.23661
      47 -> 48         0.66237
 This state for optimization and/or second-order correction.
 Total Energy, E(TD-HF/TD-DFT) =  -539.543224242
 Copying the excited state density for this state as the 1-particle RhoCI density.

 The electronic state is 1-A.
 Alpha  occ. eigenvalues --  -10.76337 -10.73351 -10.72768 -10.72634 -10.72366
 Alpha  occ. eigenvalues --  -10.71469 -10.71011 -10.70750 -10.70118 -10.69732
 Alpha  occ. eigenvalues --  -10.69379 -10.68523 -10.67852 -10.67393  -1.18680
 Alpha  occ. eigenvalues --   -1.14642  -1.09277  -1.07226  -1.02921  -1.01176
 Alpha  occ. eigenvalues --   -0.96711  -0.93072  -0.87195  -0.85993  -0.83630
 Alpha  occ. eigenvalues --   -0.79630  -0.77824  -0.74062  -0.73071  -0.72166
 Alpha  occ. eigenvalues --   -0.69498  -0.68455  -0.66855  -0.66213  -0.62695
 Alpha  occ. eigenvalues --   -0.62261  -0.61600  -0.61481  -0.60706  -0.59844
 Alpha  occ. eigenvalues --   -0.57356  -0.54932  -0.53445  -0.51785  -0.48161
 Alpha  occ. eigenvalues --   -0.46347  -0.45501
 Alpha virt. eigenvalues --   -0.25825  -0.14561  -0.13407  -0.11630  -0.11172
 Alpha virt. eigenvalues --   -0.09891  -0.09463  -0.08294  -0.08095  -0.07471
 Alpha virt. eigenvalues --   -0.07220  -0.06737  -0.05687  -0.05497  -0.05162

 Mulliken charges:
               1
     1  C    0.076151
     2  C   -0.402208
     3  C   -0.434108
     4  C    0.076149
     5  C    0.282800
     6  C   -0.416244
     7  C   -0.440549
     8  C    0.078299
     9  C   -0.382302
    10  C    0.024464
    11  C   -0.532259
    12  C    0.359662
    13  C   -0.741726
    14  C    0.900058
    15  H    0.215932
    16  H    0.249450
    17  H    0.218916
    18  H    0.207634
    19  H    0.179935
    20  H    0.268062
    21  H    0.222975
    22  H    0.265117
    23  H    0.273877
    24  H    0.227141
    25  H    0.222773
 Sum of Mulliken charges =   1.00000

 Dipole moment (field-independent basis, Debye):
    X=             -0.5981    Y=              0.3584    Z=             -0.0885  Tot=              0.7028
 Quadrupole moment (field-independent basis, Debye-Ang):
   XX=            -27.2566   YY=            -60.6686   ZZ=            -82.5671
   XY=              0.3413   XZ=             -0.5283   YZ=              0.0640

 Normal termination of Gaussian 16 at Tue Jul 26 20:46:01 2022.
