 Gaussian 16, Revision C.01,
 Gaussian 16:  ES64L-G16RevC.01  3-Jul-2019

 ---------------------------------------------------------------
 #n M062X/6-311++G(d,p) TD(NStates=1) EmpiricalDispersion=GD3 SP
 ---------------------------------------------------------------

 ----
 SP_1
 ----
 Symbolic Z-matrix:
 Charge =  1 Multiplicity = 1

                         Standard orientation:
 ---------------------------------------------------------------------
 Center     Atomic      Atomic             Coordinates (Angstroms)
 Number     Number       Type             X           Y           Z
 ---------------------------------------------------------------------
      1          6           0        2.492256   -1.269397   -0.028143
      2          6           0        3.701410   -0.578288   -0.014997
      3          6           0        3.684530    0.751485    0.026177
      4          6           0        2.463765    1.293579    0.014076
      5          6           0       -2.463190    1.318749   -0.015488
      6          6           0       -3.684519    0.763266   -0.058409
      7          6           0       -3.702024   -0.588560   -0.019244
      8          6           0       -2.492888   -1.294273    0.022855
      9          6           0       -0.000173   -1.414848    0.014255
     10          6           0        0.000456    1.282751    0.016276
     11          6           0        1.261439   -0.720690   -0.055137
     12          6           0        1.237782    0.682070    0.006162
     13          6           0       -1.261504   -0.726204    0.080684
     14          6           0       -1.237190    0.686636    0.021493
     15          1           0        2.487395   -2.391596   -0.028937
     16          1           0        4.636393   -1.113188   -0.038968
     17          1           0        4.609193    1.264936   -0.061904
     18          1           0        2.468326    2.416078    0.014873
     19          1           0        0.000723    2.383850    0.018101
     20          1           0       -2.467222    2.471250   -0.014580
     21          1           0       -4.609124    1.287028    0.012450
     22          1           0       -4.637442   -1.133046   -0.014080
     23          1           0       -2.488558   -2.448474    0.021943
     24          1           0        0.008504   -1.927894    0.873426
     25          1           0       -0.009089   -1.926602   -0.845683
 ---------------------------------------------------------------------

 SCF Done:  E(RM062X) =  -539.687958645     A.U. after   15 cycles

 Excitation energies and oscillator strengths:

 Excited State   1:      Singlet-A      3.1915 eV  388.48 nm  f=0.0274  <S**2>=0.000
      46 -> 48        -0.10489
      47 -> 48         0.69562
 This state for optimization and/or second-order correction.
 Total Energy, E(TD-HF/TD-DFT) =  -539.570673463
 Copying the excited state density for this state as the 1-particle RhoCI density.

 The electronic state is 1-A.
 Alpha  occ. eigenvalues --  -10.76368 -10.72386 -10.71915 -10.71722 -10.71551
 Alpha  occ. eigenvalues --  -10.71390 -10.71331 -10.70949 -10.70676 -10.70043
 Alpha  occ. eigenvalues --  -10.69317 -10.69018 -10.68524 -10.68470  -1.18511
 Alpha  occ. eigenvalues --   -1.14637  -1.09415  -1.07247  -1.02873  -1.01212
 Alpha  occ. eigenvalues --   -0.96767  -0.93126  -0.87261  -0.85787  -0.83770
 Alpha  occ. eigenvalues --   -0.79691  -0.77626  -0.74216  -0.73074  -0.71972
 Alpha  occ. eigenvalues --   -0.69518  -0.68584  -0.67061  -0.66260  -0.62585
 Alpha  occ. eigenvalues --   -0.62182  -0.61843  -0.61595  -0.60956  -0.59946
 Alpha  occ. eigenvalues --   -0.57425  -0.54941  -0.53427  -0.51891  -0.48219
 Alpha  occ. eigenvalues --   -0.46178  -0.45779
 Alpha virt. eigenvalues --   -0.25816  -0.14478  -0.13109  -0.11866  -0.11171
 Alpha virt. eigenvalues --   -0.09842  -0.09418  -0.08295  -0.08129  -0.07430
 Alpha virt. eigenvalues --   -0.07172  -0.06791  -0.05648  -0.05491  -0.05145

 Mulliken charges:
               1
     1  C    0.097935
     2  C   -0.437692
     3  C   -0.438280
     4  C    0.123625
     5  C    0.165937
     6  C   -0.431275
     7  C   -0.445933
     8  C    0.098816
     9  C   -0.368041
    10  C    0.049118
    11  C   -0.652086
    12  C    0.626392
    13  C   -0.688871
    14  C    0.736659
    15  H    0.242569
    16  H    0.256232
    17  H    0.220505
    18  H    0.233344
    19  H    0.181036
    20  H    0.245609
    21  H    0.221256
    22  H    0.259357
    23  H    0.254398
    24  H    0.225105
    25  H    0.224284
 Sum of Mulliken charges =   1.00000

 Dipole moment (field-independent basis, Debye):
    X=             -0.1202    Y=              0.3679    Z=             -0.0176  Tot=              0.3875
 Quadrupole moment (field-independent basis, Debye-Ang):
   XX=            -27.2263   YY=            -60.8491   ZZ=            -82.5959
   XY=              0.0686   XZ=             -0.5754   YZ=              0.0126

 Normal termination of Gaussian 16 at Tue Jul 26 18:06:42 2022.
