 Gaussian 16, Revision C.01,
 Gaussian 16:  ES64L-G16RevC.01  3-Jul-2019

 ---------------------------------------------------------------
 #n M062X/6-311++G(d,p) TD(NStates=1) EmpiricalDispersion=GD3 SP
 ---------------------------------------------------------------

 ----
 SP_3
 ----
 Symbolic Z-matrix:
 Charge =  1 Multiplicity = 1

                         Standard orientation:
 ---------------------------------------------------------------------
 Center     Atomic      Atomic             Coordinates (Angstroms)
 Number     Number       Type             X           Y           Z
 ---------------------------------------------------------------------
      1          6           0        2.491648   -1.244508   -0.033364
      2          6           0        3.700807   -0.567915   -0.049215
      3          6           0        3.684532    0.739803   -0.006096
      4          6           0        2.464316    1.268415    0.012586
      5          6           0       -2.462593    1.343927   -0.016817
      6          6           0       -3.684497    0.775145   -0.090597
      7          6           0       -3.702647   -0.598729   -0.053509
      8          6           0       -2.493544   -1.319136    0.017495
      9          6           0       -0.000519   -1.414937    0.042763
     10          6           0        0.001367    1.282656    0.048829
     11          6           0        1.261380   -0.715254   -0.029578
     12          6           0        1.238369    0.677423    0.033802
     13          6           0       -1.261574   -0.731796    0.106215
     14          6           0       -1.236594    0.691119    0.049166
     15          1           0        2.486286   -2.334701   -0.035769
     16          1           0        4.635363   -1.093174   -0.091968
     17          1           0        4.609242    1.242994   -0.111432
     18          1           0        2.469380    2.360909    0.014999
     19          1           0        0.002168    2.383746    0.054305
     20          1           0       -2.466066    2.526426   -0.014114
     21          1           0       -4.609035    1.309273   -0.036927
     22          1           0       -4.638511   -1.152746   -0.067180
     23          1           0       -2.489774   -2.505336    0.014781
     24          1           0        0.007921   -1.929274    0.901164
     25          1           0       -0.009676   -1.925396   -0.817941
 ---------------------------------------------------------------------

 SCF Done:  E(RM062X) =  -539.678391652     A.U. after   16 cycles

 Excitation energies and oscillator strengths:

 Excited State   1:      Singlet-A      3.1787 eV  390.05 nm  f=0.0331  <S**2>=0.000
      46 -> 48        -0.21488
      47 -> 48         0.66981
 This state for optimization and/or second-order correction.
 Total Energy, E(TD-HF/TD-DFT) =  -539.561576901
 Copying the excited state density for this state as the 1-particle RhoCI density.

 The electronic state is 1-A.
 Alpha  occ. eigenvalues --  -10.76358 -10.72866 -10.72177 -10.72029 -10.71984
 Alpha  occ. eigenvalues --  -10.71456 -10.71067 -10.70761 -10.70340 -10.70025
 Alpha  occ. eigenvalues --  -10.69568 -10.68586 -10.68523 -10.67928  -1.18568
 Alpha  occ. eigenvalues --   -1.14639  -1.09368  -1.07240  -1.02889  -1.01200
 Alpha  occ. eigenvalues --   -0.96748  -0.93107  -0.87238  -0.85860  -0.83720
 Alpha  occ. eigenvalues --   -0.79670  -0.77695  -0.74159  -0.73073  -0.72043
 Alpha  occ. eigenvalues --   -0.69510  -0.68539  -0.66991  -0.66245  -0.62601
 Alpha  occ. eigenvalues --   -0.62260  -0.61739  -0.61555  -0.60867  -0.59913
 Alpha  occ. eigenvalues --   -0.57402  -0.54938  -0.53433  -0.51855  -0.48199
 Alpha  occ. eigenvalues --   -0.46254  -0.45667
 Alpha virt. eigenvalues --   -0.25819  -0.14505  -0.13222  -0.11774  -0.11171
 Alpha virt. eigenvalues --   -0.09858  -0.09433  -0.08294  -0.08117  -0.07444
 Alpha virt. eigenvalues --   -0.07188  -0.06773  -0.05662  -0.05492  -0.05151

 Mulliken charges:
               1
     1  C    0.089966
     2  C   -0.422837
     3  C   -0.440556
     4  C    0.094005
     5  C    0.220019
     6  C   -0.422945
     7  C   -0.446999
     8  C    0.092065
     9  C   -0.373475
    10  C    0.041449
    11  C   -0.601604
    12  C    0.499890
    13  C   -0.717731
    14  C    0.829134
    15  H    0.229624
    16  H    0.252931
    17  H    0.219731
    18  H    0.220675
    19  H    0.180587
    20  H    0.257258
    21  H    0.222059
    22  H    0.262313
    23  H    0.264864
    24  H    0.226048
    25  H    0.223529
 Sum of Mulliken charges =   1.00000

 Dipole moment (field-independent basis, Debye):
    X=             -0.3602    Y=              0.3647    Z=             -0.0530  Tot=              0.5153
 Quadrupole moment (field-independent basis, Debye-Ang):
   XX=            -27.2367   YY=            -60.7886   ZZ=            -82.5863
   XY=              0.2054   XZ=             -0.5597   YZ=              0.0381

 Normal termination of Gaussian 16 at Tue Jul 26 19:24:09 2022.
