 Gaussian 16, Revision C.01,
 Gaussian 16:  ES64L-G16RevC.01  3-Jul-2019

 ---------------------------------------------------------------
 #n M062X/6-311++G(d,p) TD(NStates=1) EmpiricalDispersion=GD3 SP
 ---------------------------------------------------------------

 ----
 SP_2
 ----
 Symbolic Z-matrix:
 Charge =  1 Multiplicity = 1

                         Standard orientation:
 ---------------------------------------------------------------------
 Center     Atomic      Atomic             Coordinates (Angstroms)
 Number     Number       Type             X           Y           Z
 ---------------------------------------------------------------------
      1          6           0        2.492055   -1.319890   -0.009316
      2          6           0        3.701132   -0.644054   -0.033357
      3          6           0        3.684198    0.710749   -0.024452
      4          6           0        2.463858    1.362118    0.000464
      5          6           0       -2.462541    1.412485   -0.005422
      6          6           0       -3.683642    0.734293   -0.041358
      7          6           0       -3.701896   -0.664503   -0.034219
      8          6           0       -2.493359   -1.369505    0.000855
      9          6           0       -0.000631   -1.445719    0.029705
     10          6           0        0.000734    1.399880    0.031529
     11          6           0        1.261803   -0.680913    0.012612
     12          6           0        1.237898    0.716890    0.025559
     13          6           0       -1.262352   -0.691720    0.039771
     14          6           0       -1.237097    0.726075    0.028630
     15          1           0        2.486946   -2.382087   -0.009988
     16          1           0        4.636137   -1.174189   -0.054611
     17          1           0        4.609790    1.250927   -0.057999
     18          1           0        2.468668    2.425616    0.001137
     19          1           0        0.001259    2.484978    0.034225
     20          1           0       -2.466302    2.535987   -0.004692
     21          1           0       -4.608779    1.295338   -0.043104
     22          1           0       -4.637492   -1.213744   -0.049657
     23          1           0       -2.489299   -2.495707    0.000123
     24          1           0        0.000814   -2.102671    0.888882
     25          1           0       -0.002705   -2.101567   -0.830314
 ---------------------------------------------------------------------

 SCF Done:  E(RM062X) =  -539.754484482     A.U. after   15 cycles

 Excitation energies and oscillator strengths:

 Excited State   1:      Singlet-A      2.9017 eV  427.28 nm  f=0.0295  <S**2>=0.000
      47 -> 48         0.70313
 This state for optimization and/or second-order correction.
 Total Energy, E(TD-HF/TD-DFT) =  -539.647848244
 Copying the excited state density for this state as the 1-particle RhoCI density.

 The electronic state is 1-A.
 Alpha  occ. eigenvalues --  -10.77394 -10.73481 -10.72568 -10.72534 -10.71941
 Alpha  occ. eigenvalues --  -10.71915 -10.71630 -10.70698 -10.70618 -10.70456
 Alpha  occ. eigenvalues --  -10.70347 -10.69970 -10.69175 -10.68877  -1.16855
 Alpha  occ. eigenvalues --   -1.12874  -1.07307  -1.06117  -1.01374  -1.00633
 Alpha  occ. eigenvalues --   -0.95947  -0.91474  -0.86359  -0.86161  -0.83711
 Alpha  occ. eigenvalues --   -0.78628  -0.76445  -0.74321  -0.69933  -0.69232
 Alpha  occ. eigenvalues --   -0.68970  -0.68243  -0.68179  -0.64599  -0.63785
 Alpha  occ. eigenvalues --   -0.63642  -0.61787  -0.60578  -0.59901  -0.59348
 Alpha  occ. eigenvalues --   -0.56550  -0.55335  -0.54592  -0.52645  -0.46859
 Alpha  occ. eigenvalues --   -0.46162  -0.44751
 Alpha virt. eigenvalues --   -0.26016  -0.14429  -0.14125  -0.12522  -0.11178
 Alpha virt. eigenvalues --   -0.10038  -0.09267  -0.08040  -0.07928  -0.07471
 Alpha virt. eigenvalues --   -0.07203  -0.07077  -0.05646  -0.05559  -0.05286

 Mulliken charges:
               1
     1  C    0.079818
     2  C   -0.404828
     3  C   -0.427537
     4  C    0.012241
     5  C    0.082238
     6  C   -0.448217
     7  C   -0.426870
     8  C    0.106239
     9  C   -0.285263
    10  C    0.101101
    11  C   -0.656796
    12  C    0.679841
    13  C   -0.711980
    14  C    0.693680
    15  H    0.225657
    16  H    0.253406
    17  H    0.244157
    18  H    0.211498
    19  H    0.185968
    20  H    0.240853
    21  H    0.246570
    22  H    0.258575
    23  H    0.252025
    24  H    0.245912
    25  H    0.241713
 Sum of Mulliken charges =   1.00000

 Dipole moment (field-independent basis, Debye):
    X=             -0.2374    Y=              0.2188    Z=             -0.0317  Tot=              0.3244
 Quadrupole moment (field-independent basis, Debye-Ang):
   XX=            -30.3531   YY=            -57.1375   ZZ=            -83.8179
   XY=              0.1516   XZ=             -0.1190   YZ=              0.0405

 Normal termination of Gaussian 16 at Tue Jul 26 18:19:31 2022.
