 Gaussian 16, Revision C.01,
 Gaussian 16:  ES64L-G16RevC.01  3-Jul-2019

 ---------------------------------------------------------------
 #n M062X/6-311++G(d,p) TD(NStates=1) EmpiricalDispersion=GD3 SP
 ---------------------------------------------------------------

 ----
 SP_1
 ----
 Symbolic Z-matrix:
 Charge =  1 Multiplicity = 1

                         Standard orientation:
 ---------------------------------------------------------------------
 Center     Atomic      Atomic             Coordinates (Angstroms)
 Number     Number       Type             X           Y           Z
 ---------------------------------------------------------------------
      1          6           0        2.492301   -1.285124   -0.022907
      2          6           0        3.701361   -0.596012   -0.015365
      3          6           0        3.684338    0.742771    0.017629
      4          6           0        2.463674    1.313862    0.010986
      5          6           0       -2.463079    1.339034   -0.012667
      6          6           0       -3.684260    0.754545   -0.050044
      7          6           0       -3.701917   -0.606272   -0.018766
      8          6           0       -2.492938   -1.309979    0.017889
      9          6           0       -0.000209   -1.422562    0.014411
     10          6           0        0.000433    1.312037    0.016150
     11          6           0        1.261639   -0.711423   -0.041468
     12          6           0        1.237763    0.691352    0.007624
     13          6           0       -1.261757   -0.716899    0.067190
     14          6           0       -1.237219    0.695925    0.019889
     15          1           0        2.487440   -2.396322   -0.023576
     16          1           0        4.636398   -1.130919   -0.036362
     17          1           0        4.609298    1.264200   -0.054613
     18          1           0        2.468235    2.425361    0.011657
     19          1           0        0.000699    2.409136    0.017847
     20          1           0       -2.467111    2.480535   -0.011906
     21          1           0       -4.609119    1.286327    0.004868
     22          1           0       -4.637354   -1.150753   -0.016456
     23          1           0       -2.488607   -2.453180    0.017124
     24          1           0        0.006700   -1.971510    0.873633
     25          1           0       -0.007374   -1.970414   -0.845509
 ---------------------------------------------------------------------

 SCF Done:  E(RM062X) =  -539.715772533     A.U. after   14 cycles

 Excitation energies and oscillator strengths:

 Excited State   1:      Singlet-A      3.1275 eV  396.43 nm  f=0.0279  <S**2>=0.000
      47 -> 48         0.70136
 This state for optimization and/or second-order correction.
 Total Energy, E(TD-HF/TD-DFT) =  -539.600838907
 Copying the excited state density for this state as the 1-particle RhoCI density.

 The electronic state is 1-A.
 Alpha  occ. eigenvalues --  -10.76617 -10.72582 -10.72110 -10.71874 -10.71554
 Alpha  occ. eigenvalues --  -10.71545 -10.71314 -10.70943 -10.70661 -10.70085
 Alpha  occ. eigenvalues --  -10.69359 -10.69163 -10.68975 -10.68615  -1.18076
 Alpha  occ. eigenvalues --   -1.14179  -1.08823  -1.07010  -1.02362  -1.01196
 Alpha  occ. eigenvalues --   -0.96541  -0.92732  -0.87001  -0.85931  -0.83693
 Alpha  occ. eigenvalues --   -0.79419  -0.77366  -0.74232  -0.71979  -0.71439
 Alpha  occ. eigenvalues --   -0.69380  -0.68451  -0.66813  -0.66328  -0.63029
 Alpha  occ. eigenvalues --   -0.62239  -0.61848  -0.61638  -0.60781  -0.59935
 Alpha  occ. eigenvalues --   -0.56954  -0.55291  -0.53266  -0.52608  -0.47860
 Alpha  occ. eigenvalues --   -0.46191  -0.45543
 Alpha virt. eigenvalues --   -0.25852  -0.14382  -0.13415  -0.11992  -0.11177
 Alpha virt. eigenvalues --   -0.09885  -0.09372  -0.08228  -0.08008  -0.07437
 Alpha virt. eigenvalues --   -0.07176  -0.06845  -0.05640  -0.05503  -0.05166

 Mulliken charges:
               1
     1  C   -0.017251
     2  C   -0.432762
     3  C   -0.429119
     4  C    0.107328
     5  C    0.143416
     6  C   -0.435357
     7  C   -0.444243
     8  C    0.019423
     9  C   -0.305733
    10  C    0.100073
    11  C   -0.657705
    12  C    0.722142
    13  C   -0.655007
    14  C    0.718875
    15  H    0.239561
    16  H    0.255585
    17  H    0.226520
    18  H    0.232028
    19  H    0.179913
    20  H    0.245016
    21  H    0.226977
    22  H    0.258476
    23  H    0.252070
    24  H    0.225835
    25  H    0.223940
 Sum of Mulliken charges =   1.00000

 Dipole moment (field-independent basis, Debye):
    X=             -0.1200    Y=              0.3260    Z=             -0.0169  Tot=              0.3478
 Quadrupole moment (field-independent basis, Debye-Ang):
   XX=            -28.0103   YY=            -59.9136   ZZ=            -82.8950
   XY=              0.0703   XZ=             -0.4692   YZ=              0.0154

 Normal termination of Gaussian 16 at Tue Jul 26 17:59:36 2022.
