 Gaussian 16, Revision C.01,
 Gaussian 16:  ES64L-G16RevC.01  3-Jul-2019

 ---------------------------------------------------------------
 #n M062X/6-311++G(d,p) TD(NStates=1) EmpiricalDispersion=GD3 SP
 ---------------------------------------------------------------

 ----
 SP_2
 ----
 Symbolic Z-matrix:
 Charge =  1 Multiplicity = 1

                         Standard orientation:
 ---------------------------------------------------------------------
 Center     Atomic      Atomic             Coordinates (Angstroms)
 Number     Number       Type             X           Y           Z
 ---------------------------------------------------------------------
      1          6           0        2.492023   -1.288427   -0.020031
      2          6           0        3.701085   -0.608585   -0.032737
      3          6           0        3.684265    0.728197   -0.007221
      4          6           0        2.463906    1.321559    0.006900
      5          6           0       -2.462673    1.371909   -0.010798
      6          6           0       -3.683975    0.751736   -0.057956
      7          6           0       -3.702081   -0.629080   -0.035303
      8          6           0       -2.493307   -1.338101    0.010527
      9          6           0       -0.000489   -1.430300    0.029124
     10          6           0        0.000823    1.341298    0.032044
     11          6           0        1.261706   -0.699450   -0.014855
     12          6           0        1.237989    0.698322    0.022769
     13          6           0       -1.262046   -0.710342    0.066631
     14          6           0       -1.236997    0.707484    0.031975
     15          1           0        2.486910   -2.372624   -0.021145
     16          1           0        4.635988   -1.138699   -0.060038
     17          1           0        4.609528    1.252428   -0.072349
     18          1           0        2.468719    2.407057    0.008017
     19          1           0        0.001352    2.434395    0.035196
     20          1           0       -2.466431    2.517410   -0.009565
     21          1           0       -4.608952    1.296742   -0.027700
     22          1           0       -4.637715   -1.178327   -0.045139
     23          1           0       -2.489250   -2.486302    0.009289
     24          1           0        0.004513   -2.015608    0.888091
     25          1           0       -0.006043   -2.013791   -0.831075
 ---------------------------------------------------------------------

 SCF Done:  E(RM062X) =  -539.733080110     A.U. after   15 cycles

 Excitation energies and oscillator strengths:

 Excited State   1:      Singlet-A      3.0543 eV  405.93 nm  f=0.0295  <S**2>=0.000
      47 -> 48         0.70038
 This state for optimization and/or second-order correction.
 Total Energy, E(TD-HF/TD-DFT) =  -539.620835424
 Copying the excited state density for this state as the 1-particle RhoCI density.

 The electronic state is 1-A.
 Alpha  occ. eigenvalues --  -10.76868 -10.73031 -10.72205 -10.72085 -10.71874
 Alpha  occ. eigenvalues --  -10.71629 -10.71550 -10.70643 -10.70495 -10.70331
 Alpha  occ. eigenvalues --  -10.69600 -10.69449 -10.69046 -10.68504  -1.17671
 Alpha  occ. eigenvalues --   -1.13731  -1.08254  -1.06748  -1.01896  -1.01140
 Alpha  occ. eigenvalues --   -0.96325  -0.92316  -0.86726  -0.86095  -0.83647
 Alpha  occ. eigenvalues --   -0.79142  -0.77104  -0.74238  -0.70937  -0.70923
 Alpha  occ. eigenvalues --   -0.69284  -0.68326  -0.67332  -0.65567  -0.63453
 Alpha  occ. eigenvalues --   -0.62749  -0.61650  -0.61473  -0.60493  -0.59791
 Alpha  occ. eigenvalues --   -0.56492  -0.55640  -0.53292  -0.53064  -0.47502
 Alpha  occ. eigenvalues --   -0.46210  -0.45269
 Alpha virt. eigenvalues --   -0.25897  -0.14314  -0.13756  -0.12122  -0.11180
 Alpha virt. eigenvalues --   -0.09937  -0.09337  -0.08163  -0.07956  -0.07452
 Alpha virt. eigenvalues --   -0.07188  -0.06922  -0.05643  -0.05520  -0.05201

 Mulliken charges:
               1
     1  C    0.019966
     2  C   -0.424798
     3  C   -0.427795
     4  C    0.074838
     5  C    0.148976
     6  C   -0.442667
     7  C   -0.447614
     8  C    0.070125
     9  C   -0.239616
    10  C    0.114158
    11  C   -0.705433
    12  C    0.703839
    13  C   -0.716089
    14  C    0.694649
    15  H    0.230179
    16  H    0.253565
    17  H    0.233184
    18  H    0.221113
    19  H    0.180384
    20  H    0.248198
    21  H    0.234431
    22  H    0.259180
    23  H    0.255742
    24  H    0.232656
    25  H    0.228828
 Sum of Mulliken charges =   1.00000

 Dipole moment (field-independent basis, Debye):
    X=             -0.2393    Y=              0.2876    Z=             -0.0330  Tot=              0.3756
 Quadrupole moment (field-independent basis, Debye-Ang):
   XX=            -28.7986   YY=            -58.9653   ZZ=            -83.1941
   XY=              0.1441   XZ=             -0.3540   YZ=              0.0346

 Normal termination of Gaussian 16 at Tue Jul 26 18:32:44 2022.
