 Gaussian 16, Revision C.01,
 Gaussian 16:  ES64L-G16RevC.01  3-Jul-2019

 ---------------------------------------------------------------
 #n M062X/6-311++G(d,p) TD(NStates=1) EmpiricalDispersion=GD3 SP
 ---------------------------------------------------------------

 ----
 SP_3
 ----
 Symbolic Z-matrix:
 Charge =  1 Multiplicity = 1

                         Standard orientation:
 ---------------------------------------------------------------------
 Center     Atomic      Atomic             Coordinates (Angstroms)
 Number     Number       Type             X           Y           Z
 ---------------------------------------------------------------------
      1          6           0        2.491743   -1.323217   -0.005939
      2          6           0        3.701026   -0.656662   -0.050492
      3          6           0        3.684405    0.696150   -0.049586
      4          6           0        2.464192    1.369804   -0.004135
      5          6           0       -2.462154    1.445370   -0.004085
      6          6           0       -3.683371    0.731485   -0.049563
      7          6           0       -3.701999   -0.687302   -0.050513
      8          6           0       -2.493713   -1.397607   -0.005989
      9          6           0       -0.001052   -1.453446    0.044974
     10          6           0        0.001035    1.429153    0.046905
     11          6           0        1.261616   -0.668956    0.039499
     12          6           0        1.238024    0.723861    0.040432
     13          6           0       -1.262596   -0.685128    0.039488
     14          6           0       -1.236966    0.737653    0.040441
     15          1           0        2.486393   -2.358413   -0.006632
     16          1           0        4.635945   -1.182021   -0.077844
     17          1           0        4.610198    1.239098   -0.076222
     18          1           0        2.469244    2.407300   -0.003440
     19          1           0        0.001817    2.510250    0.050629
     20          1           0       -2.465638    2.572873   -0.003330
     21          1           0       -4.608356    1.305772   -0.076179
     22          1           0       -4.637700   -1.241306   -0.077885
     23          1           0       -2.489932   -2.528810   -0.006747
     24          1           0       -0.001554   -2.146421    0.904110
     25          1           0       -0.001554   -2.145270   -0.815090
 ---------------------------------------------------------------------

 SCF Done:  E(RM062X) =  -539.748903996     A.U. after   15 cycles

 Excitation energies and oscillator strengths:

 Excited State   1:      Singlet-A      2.8136 eV  440.65 nm  f=0.0304  <S**2>=0.000
      47 -> 48         0.70302
 This state for optimization and/or second-order correction.
 Total Energy, E(TD-HF/TD-DFT) =  -539.645504701
 Copying the excited state density for this state as the 1-particle RhoCI density.

 The electronic state is 1-A.
 Alpha  occ. eigenvalues --  -10.77655 -10.73959 -10.72927 -10.72542 -10.72297
 Alpha  occ. eigenvalues --  -10.71958 -10.71951 -10.71043 -10.70981 -10.70447
 Alpha  occ. eigenvalues --  -10.70430 -10.70050 -10.68889 -10.68815  -1.16485
 Alpha  occ. eigenvalues --   -1.12457  -1.06922  -1.05717  -1.01312  -1.00194
 Alpha  occ. eigenvalues --   -0.95763  -0.91039  -0.86534  -0.85866  -0.83750
 Alpha  occ. eigenvalues --   -0.78372  -0.76154  -0.74290  -0.69622  -0.69223
 Alpha  occ. eigenvalues --   -0.68525  -0.68170  -0.68098  -0.64684  -0.64203
 Alpha  occ. eigenvalues --   -0.63007  -0.61849  -0.60173  -0.59489  -0.59061
 Alpha  occ. eigenvalues --   -0.56889  -0.55188  -0.54808  -0.52434  -0.46594
 Alpha  occ. eigenvalues --   -0.46088  -0.44452
 Alpha virt. eigenvalues --   -0.26088  -0.14790  -0.14081  -0.12715  -0.11180
 Alpha virt. eigenvalues --   -0.10101  -0.09247  -0.07982  -0.07948  -0.07491
 Alpha virt. eigenvalues --   -0.07222  -0.07136  -0.05660  -0.05583  -0.05343

 Mulliken charges:
               1
     1  C    0.077934
     2  C   -0.386481
     3  C   -0.413834
     4  C   -0.040555
     5  C    0.045804
     6  C   -0.447602
     7  C   -0.417021
     8  C    0.109891
     9  C   -0.346481
    10  C    0.096303
    11  C   -0.567474
    12  C    0.641703
    13  C   -0.671427
    14  C    0.700956
    15  H    0.217168
    16  H    0.252300
    17  H    0.246371
    18  H    0.198353
    19  H    0.191886
    20  H    0.243730
    21  H    0.251345
    22  H    0.259640
    23  H    0.257101
    24  H    0.253507
    25  H    0.246881
 Sum of Mulliken charges =   1.00000

 Dipole moment (field-independent basis, Debye):
    X=             -0.3535    Y=              0.1837    Z=             -0.0470  Tot=              0.4011
 Quadrupole moment (field-independent basis, Debye-Ang):
   XX=            -31.1163   YY=            -56.1938   ZZ=            -84.1325
   XY=              0.2329   XZ=              0.0125   YZ=              0.0637

 Normal termination of Gaussian 16 at Tue Jul 26 18:52:41 2022.
