 Gaussian 16, Revision C.01,
 Gaussian 16:  ES64L-G16RevC.01  3-Jul-2019

 ---------------------------------------------------------------
 #n M062X/6-311++G(d,p) TD(NStates=1) EmpiricalDispersion=GD3 SP
 ---------------------------------------------------------------

 ----
 SP_1
 ----
 Symbolic Z-matrix:
 Charge =  1 Multiplicity = 1

                         Standard orientation:
 ---------------------------------------------------------------------
 Center     Atomic      Atomic             Coordinates (Angstroms)
 Number     Number       Type             X           Y           Z
 ---------------------------------------------------------------------
      1          6           0        2.492375   -1.348017   -0.001985
      2          6           0        3.701339   -0.666905   -0.016833
      3          6           0        3.684071    0.707899   -0.016526
      4          6           0        2.463537    1.394990   -0.001373
      5          6           0       -2.462857    1.420179   -0.001367
      6          6           0       -3.683726    0.719677   -0.016524
      7          6           0       -3.701664   -0.677119   -0.016835
      8          6           0       -2.493031   -1.372814   -0.001991
      9          6           0       -0.000351   -1.453419    0.014991
     10          6           0        0.000345    1.429181    0.015635
     11          6           0        1.261937   -0.674323    0.013165
     12          6           0        1.237676    0.728483    0.013478
     13          6           0       -1.262264   -0.679714    0.013164
     14          6           0       -1.237323    0.733080    0.013479
     15          1           0        2.487517   -2.415216   -0.002223
     16          1           0        4.636510   -1.201829   -0.025952
     17          1           0        4.609604    1.261278   -0.025403
     18          1           0        2.468094    2.462489   -0.001135
     19          1           0        0.000606    2.510280    0.016876
     20          1           0       -2.466893    2.517680   -0.001122
     21          1           0       -4.608990    1.283502   -0.025398
     22          1           0       -4.637095   -1.221591   -0.025957
     23          1           0       -2.488697   -2.472015   -0.002236
     24          1           0       -0.000518   -2.146011    0.874437
     25          1           0       -0.000518   -2.145627   -0.844763
 ---------------------------------------------------------------------

 SCF Done:  E(RM062X) =  -539.758975756     A.U. after   15 cycles

 Excitation energies and oscillator strengths:

 Excited State   1:      Singlet-A      2.8217 eV  439.40 nm  f=0.0289  <S**2>=0.000
      47 -> 48         0.70411
 This state for optimization and/or second-order correction.
 Total Energy, E(TD-HF/TD-DFT) =  -539.655280299
 Copying the excited state density for this state as the 1-particle RhoCI density.

 The electronic state is 1-A.
 Alpha  occ. eigenvalues --  -10.77666 -10.73478 -10.73005 -10.72599 -10.72273
 Alpha  occ. eigenvalues --  -10.71680 -10.71322 -10.71057 -10.70980 -10.70686
 Alpha  occ. eigenvalues --  -10.70331 -10.69902 -10.69611 -10.69358  -1.16447
 Alpha  occ. eigenvalues --   -1.12465  -1.06942  -1.05727  -1.01314  -1.00185
 Alpha  occ. eigenvalues --   -0.95779  -0.91054  -0.86432  -0.85897  -0.83810
 Alpha  occ. eigenvalues --   -0.78396  -0.76042  -0.74403  -0.69568  -0.69242
 Alpha  occ. eigenvalues --   -0.68506  -0.68191  -0.68101  -0.64733  -0.64275
 Alpha  occ. eigenvalues --   -0.63057  -0.61865  -0.60030  -0.59650  -0.59087
 Alpha  occ. eigenvalues --   -0.56897  -0.55213  -0.54834  -0.52438  -0.46621
 Alpha  occ. eigenvalues --   -0.46061  -0.44496
 Alpha virt. eigenvalues --   -0.26088  -0.14684  -0.14094  -0.12767  -0.11179
 Alpha virt. eigenvalues --   -0.10088  -0.09232  -0.07983  -0.07967  -0.07477
 Alpha virt. eigenvalues --   -0.07206  -0.07144  -0.05645  -0.05581  -0.05333

 Mulliken charges:
               1
     1  C    0.087676
     2  C   -0.400966
     3  C   -0.433594
     4  C   -0.001543
     5  C    0.027909
     6  C   -0.444498
     7  C   -0.411404
     8  C    0.098906
     9  C   -0.335669
    10  C    0.093496
    11  C   -0.616757
    12  C    0.674500
    13  C   -0.652506
    14  C    0.695077
    15  H    0.230535
    16  H    0.255064
    17  H    0.248066
    18  H    0.214269
    19  H    0.190577
    20  H    0.229511
    21  H    0.249728
    22  H    0.257490
    23  H    0.244005
    24  H    0.251186
    25  H    0.248941
 Sum of Mulliken charges =   1.00000

 Dipole moment (field-independent basis, Debye):
    X=             -0.1181    Y=              0.1875    Z=             -0.0156  Tot=              0.2221
 Quadrupole moment (field-independent basis, Debye-Ang):
   XX=            -31.1173   YY=            -56.2542   ZZ=            -84.1411
   XY=              0.0777   XZ=              0.0014   YZ=              0.0213

 Normal termination of Gaussian 16 at Tue Jul 26 17:40:13 2022.
