 Gaussian 16, Revision C.01,
 Gaussian 16:  ES64L-G16RevC.01  3-Jul-2019

 ---------------------------------------------------------------
 #n M062X/6-311++G(d,p) TD(NStates=1) EmpiricalDispersion=GD3 SP
 ---------------------------------------------------------------

 ----
 SP_5
 ----
 Symbolic Z-matrix:
 Charge =  1 Multiplicity = 1

                         Standard orientation:
 ---------------------------------------------------------------------
 Center     Atomic      Atomic             Coordinates (Angstroms)
 Number     Number       Type             X           Y           Z
 ---------------------------------------------------------------------
      1          6           0        2.491098   -1.235381   -0.032773
      2          6           0        3.700281   -0.575236   -0.083571
      3          6           0        3.684465    0.719474   -0.047304
      4          6           0        2.464796    1.263536    0.007426
      5          6           0       -2.461818    1.389397   -0.015819
      6          6           0       -3.684073    0.778345   -0.114763
      7          6           0       -3.703060   -0.626529   -0.087094
      8          6           0       -2.494284   -1.359655    0.007667
      9          6           0       -0.001044   -1.422789    0.072046
     10          6           0        0.002168    1.311795    0.080754
     11          6           0        1.261421   -0.700670    0.010009
     12          6           0        1.238839    0.681997    0.062612
     13          6           0       -1.262008   -0.728052    0.118595
     14          6           0       -1.236119    0.704865    0.074958
     15          1           0        2.485268   -2.282570   -0.036070
     16          1           0        4.634543   -1.090851   -0.141872
     17          1           0        4.609595    1.220331   -0.154286
     18          1           0        2.470331    2.315025    0.010739
     19          1           0        0.003498    2.408873    0.089248
     20          1           0       -2.464707    2.590895   -0.011958
     21          1           0       -4.608703    1.330969   -0.094423
     22          1           0       -4.639327   -1.190021   -0.122226
     23          1           0       -2.491102   -2.566853    0.003785
     24          1           0        0.005353   -1.973932    0.929866
     25          1           0       -0.008729   -1.968440   -0.789267
 ---------------------------------------------------------------------

 SCF Done:  E(RM062X) =  -539.686732335     A.U. after   15 cycles

 Excitation energies and oscillator strengths:

 Excited State   1:      Singlet-A      3.0935 eV  400.78 nm  f=0.0390  <S**2>=0.000
      46 -> 48         0.17576
      47 -> 48         0.68140
 This state for optimization and/or second-order correction.
 Total Energy, E(TD-HF/TD-DFT) =  -539.573046984
 Copying the excited state density for this state as the 1-particle RhoCI density.

 The electronic state is 1-A.
 Alpha  occ. eigenvalues --  -10.76586 -10.73549 -10.72775 -10.72612 -10.72521
 Alpha  occ. eigenvalues --  -10.71511 -10.71202 -10.70906 -10.70264 -10.69714
 Alpha  occ. eigenvalues --  -10.69367 -10.68975 -10.67895 -10.67534  -1.18232
 Alpha  occ. eigenvalues --   -1.14175  -1.08704  -1.06985  -1.02411  -1.01159
 Alpha  occ. eigenvalues --   -0.96488  -0.92678  -0.86941  -0.86135  -0.83556
 Alpha  occ. eigenvalues --   -0.79354  -0.77578  -0.74044  -0.71977  -0.71640
 Alpha  occ. eigenvalues --   -0.69362  -0.68342  -0.66785  -0.66111  -0.62904
 Alpha  occ. eigenvalues --   -0.62175  -0.62020  -0.61532  -0.60486  -0.59833
 Alpha  occ. eigenvalues --   -0.56890  -0.55285  -0.53278  -0.52498  -0.47801
 Alpha  occ. eigenvalues --   -0.46316  -0.45318
 Alpha virt. eigenvalues --   -0.25858  -0.14481  -0.13670  -0.11776  -0.11183
 Alpha virt. eigenvalues --   -0.09932  -0.09417  -0.08225  -0.07977  -0.07478
 Alpha virt. eigenvalues --   -0.07220  -0.06800  -0.05680  -0.05509  -0.05186

 Mulliken charges:
               1
     1  C   -0.044116
     2  C   -0.400614
     3  C   -0.389448
     4  C    0.049102
     5  C    0.210227
     6  C   -0.436177
     7  C   -0.448425
     8  C    0.089544
     9  C   -0.254361
    10  C    0.110668
    11  C   -0.672806
    12  C    0.643782
    13  C   -0.644144
    14  C    0.631135
    15  H    0.212622
    16  H    0.248862
    17  H    0.226200
    18  H    0.202268
    19  H    0.182218
    20  H    0.266292
    21  H    0.228959
    22  H    0.263055
    23  H    0.273342
    24  H    0.230150
    25  H    0.221665
 Sum of Mulliken charges =   1.00000

 Dipole moment (field-independent basis, Debye):
    X=             -0.5970    Y=              0.3164    Z=             -0.0850  Tot=              0.6810
 Quadrupole moment (field-independent basis, Debye-Ang):
   XX=            -28.0332   YY=            -59.7316   ZZ=            -82.8675
   XY=              0.3505   XZ=             -0.4256   YZ=              0.0770

 Normal termination of Gaussian 16 at Tue Jul 26 20:39:04 2022.
