 Gaussian 16, Revision C.01,
 Gaussian 16:  ES64L-G16RevC.01  3-Jul-2019

 ---------------------------------------------------------------
 #n M062X/6-311++G(d,p) TD(NStates=1) EmpiricalDispersion=GD3 SP
 ---------------------------------------------------------------

 ----
 SP_2
 ----
 Symbolic Z-matrix:
 Charge =  1 Multiplicity = 1

                         Standard orientation:
 ---------------------------------------------------------------------
 Center     Atomic      Atomic             Coordinates (Angstroms)
 Number     Number       Type             X           Y           Z
 ---------------------------------------------------------------------
      1          6           0        2.491991   -1.272692   -0.025395
      2          6           0        3.701088   -0.590850   -0.032424
      3          6           0        3.684374    0.736916    0.001408
      4          6           0        2.463963    1.301278    0.010120
      5          6           0       -2.462772    1.351622   -0.013482
      6          6           0       -3.684217    0.760463   -0.066238
      7          6           0       -3.702199   -0.611369   -0.035840
      8          6           0       -2.493265   -1.322402    0.015357
      9          6           0       -0.000417   -1.422590    0.028821
     10          6           0        0.000867    1.312007    0.032299
     11          6           0        1.261583   -0.708709   -0.028602
     12          6           0        1.238033    0.689039    0.021376
     13          6           0       -1.261818   -0.719662    0.080047
     14          6           0       -1.236945    0.698186    0.033650
     15          1           0        2.486877   -2.367889   -0.026750
     16          1           0        4.635927   -1.120951   -0.062755
     17          1           0        4.609380    1.253185   -0.079509
     18          1           0        2.468778    2.397775    0.011479
     19          1           0        0.001399    2.409104    0.035695
     20          1           0       -2.466529    2.508123   -0.011976
     21          1           0       -4.609023    1.297439   -0.019980
     22          1           0       -4.637840   -1.160621   -0.042881
     23          1           0       -2.489210   -2.481603    0.013845
     24          1           0        0.006363   -1.972087    0.887694
     25          1           0       -0.007712   -1.969893   -0.831447
 ---------------------------------------------------------------------

 SCF Done:  E(RM062X) =  -539.712163529     A.U. after   15 cycles

 Excitation energies and oscillator strengths:

 Excited State   1:      Singlet-A      3.1232 eV  396.98 nm  f=0.0295  <S**2>=0.000
      46 -> 48         0.10443
      47 -> 48         0.69586
 This state for optimization and/or second-order correction.
 Total Energy, E(TD-HF/TD-DFT) =  -539.597388572
 Copying the excited state density for this state as the 1-particle RhoCI density.

 The electronic state is 1-A.
 Alpha  occ. eigenvalues --  -10.76613 -10.72822 -10.72041 -10.71878 -10.71855
 Alpha  occ. eigenvalues --  -10.71640 -10.71383 -10.70636 -10.70445 -10.70336
 Alpha  occ. eigenvalues --  -10.69438 -10.68994 -10.68975 -10.68342  -1.18096
 Alpha  occ. eigenvalues --   -1.14178  -1.08808  -1.07007  -1.02368  -1.01191
 Alpha  occ. eigenvalues --   -0.96534  -0.92725  -0.86992  -0.85959  -0.83675
 Alpha  occ. eigenvalues --   -0.79411  -0.77394  -0.74206  -0.71979  -0.71467
 Alpha  occ. eigenvalues --   -0.69378  -0.68437  -0.66810  -0.66300  -0.63013
 Alpha  occ. eigenvalues --   -0.62219  -0.61896  -0.61617  -0.60738  -0.59922
 Alpha  occ. eigenvalues --   -0.56946  -0.55290  -0.53267  -0.52594  -0.47853
 Alpha  occ. eigenvalues --   -0.46212  -0.45510
 Alpha virt. eigenvalues --   -0.25853  -0.14394  -0.13452  -0.11960  -0.11178
 Alpha virt. eigenvalues --   -0.09891  -0.09377  -0.08227  -0.08004  -0.07443
 Alpha virt. eigenvalues --   -0.07181  -0.06839  -0.05646  -0.05504  -0.05169

 Mulliken charges:
               1
     1  C   -0.030184
     2  C   -0.425871
     3  C   -0.422717
     4  C    0.090948
     5  C    0.161921
     6  C   -0.436347
     7  C   -0.448133
     8  C    0.040162
     9  C   -0.295648
    10  C    0.101685
    11  C   -0.662784
    12  C    0.712746
    13  C   -0.655826
    14  C    0.705532
    15  H    0.232977
    16  H    0.254004
    17  H    0.226389
    18  H    0.225006
    19  H    0.180161
    20  H    0.250949
    21  H    0.227327
    22  H    0.259764
    23  H    0.257906
    24  H    0.226881
    25  H    0.223149
 Sum of Mulliken charges =   1.00000

 Dipole moment (field-independent basis, Debye):
    X=             -0.2400    Y=              0.3248    Z=             -0.0338  Tot=              0.4053
 Quadrupole moment (field-independent basis, Debye-Ang):
   XX=            -28.0133   YY=            -59.8908   ZZ=            -82.8915
   XY=              0.1405   XZ=             -0.4638   YZ=              0.0308

 Normal termination of Gaussian 16 at Tue Jul 26 18:39:24 2022.
