 Gaussian 16, Revision C.01,
 Gaussian 16:  ES64L-G16RevC.01  3-Jul-2019

 ---------------------------------------------------------------
 #n M062X/6-311++G(d,p) TD(NStates=1) EmpiricalDispersion=GD3 SP
 ---------------------------------------------------------------

 ----
 SP_2
 ----
 Symbolic Z-matrix:
 Charge =  1 Multiplicity = 1

                         Standard orientation:
 ---------------------------------------------------------------------
 Center     Atomic      Atomic             Coordinates (Angstroms)
 Number     Number       Type             X           Y           Z
 ---------------------------------------------------------------------
      1          6           0        2.491949   -1.256954   -0.030762
      2          6           0        3.701107   -0.573115   -0.032109
      3          6           0        3.684532    0.745632    0.010045
      4          6           0        2.464043    1.280996    0.013341
      5          6           0       -2.462895    1.331337   -0.016163
      6          6           0       -3.684509    0.769193   -0.074509
      7          6           0       -3.702334   -0.593657   -0.036373
      8          6           0       -2.493213   -1.306707    0.020184
      9          6           0       -0.000346   -1.414881    0.028510
     10          6           0        0.000911    1.282716    0.032552
     11          6           0        1.261409   -0.717962   -0.042359
     12          6           0        1.238076    0.679757    0.019984
     13          6           0       -1.261538   -0.728990    0.093451
     14          6           0       -1.236893    0.688888    0.035327
     15          1           0        2.486834   -2.363150   -0.032373
     16          1           0        4.635876   -1.103201   -0.065474
     17          1           0        4.609220    1.253946   -0.086659
     18          1           0        2.468859    2.388493    0.014956
     19          1           0        0.001445    2.383811    0.036202
     20          1           0       -2.466650    2.498838   -0.014369
     21          1           0       -4.609082    1.298131   -0.012248
     22          1           0       -4.637974   -1.142916   -0.040624
     23          1           0       -2.489159   -2.476907    0.018383
     24          1           0        0.008212   -1.928573    0.887296
     25          1           0       -0.009382   -1.925988   -0.831812
 ---------------------------------------------------------------------

 SCF Done:  E(RM062X) =  -539.684375662     A.U. after   15 cycles

 Excitation energies and oscillator strengths:

 Excited State   1:      Singlet-A      3.1867 eV  389.07 nm  f=0.0296  <S**2>=0.000
      46 -> 48        -0.17652
      47 -> 48         0.68095
 This state for optimization and/or second-order correction.
 Total Energy, E(TD-HF/TD-DFT) =  -539.567268112
 Copying the excited state density for this state as the 1-particle RhoCI density.

 The electronic state is 1-A.
 Alpha  occ. eigenvalues --  -10.76364 -10.72625 -10.71910 -10.71830 -10.71684
 Alpha  occ. eigenvalues --  -10.71658 -10.71227 -10.70645 -10.70403 -10.70350
 Alpha  occ. eigenvalues --  -10.69293 -10.68952 -10.68524 -10.68198  -1.18533
 Alpha  occ. eigenvalues --   -1.14638  -1.09397  -1.07244  -1.02879  -1.01208
 Alpha  occ. eigenvalues --   -0.96760  -0.93119  -0.87252  -0.85815  -0.83751
 Alpha  occ. eigenvalues --   -0.79683  -0.77653  -0.74194  -0.73073  -0.72000
 Alpha  occ. eigenvalues --   -0.69515  -0.68567  -0.67035  -0.66255  -0.62588
 Alpha  occ. eigenvalues --   -0.62221  -0.61798  -0.61580  -0.60922  -0.59934
 Alpha  occ. eigenvalues --   -0.57417  -0.54940  -0.53429  -0.51877  -0.48212
 Alpha  occ. eigenvalues --   -0.46211  -0.45732
 Alpha virt. eigenvalues --   -0.25817  -0.14488  -0.13153  -0.11829  -0.11171
 Alpha virt. eigenvalues --   -0.09848  -0.09424  -0.08294  -0.08125  -0.07435
 Alpha virt. eigenvalues --   -0.07178  -0.06784  -0.05653  -0.05491  -0.05148

 Mulliken charges:
               1
     1  C    0.094765
     2  C   -0.431050
     3  C   -0.440243
     4  C    0.107251
     5  C    0.191653
     6  C   -0.427083
     7  C   -0.447386
     8  C    0.096387
     9  C   -0.370163
    10  C    0.046309
    11  C   -0.628940
    12  C    0.565077
    13  C   -0.704014
    14  C    0.785275
    15  H    0.236218
    16  H    0.254603
    17  H    0.220124
    18  H    0.227054
    19  H    0.180858
    20  H    0.251528
    21  H    0.221646
    22  H    0.260855
    23  H    0.259813
    24  H    0.225558
    25  H    0.223902
 Sum of Mulliken charges =   1.00000

 Dipole moment (field-independent basis, Debye):
    X=             -0.2404    Y=              0.3667    Z=             -0.0353  Tot=              0.4399
 Quadrupole moment (field-independent basis, Debye-Ang):
   XX=            -27.2303   YY=            -60.8262   ZZ=            -82.5923
   XY=              0.1371   XZ=             -0.5695   YZ=              0.0253

 Normal termination of Gaussian 16 at Tue Jul 26 18:46:06 2022.
