 Gaussian 16, Revision C.01,
 Gaussian 16:  ES64L-G16RevC.01  3-Jul-2019

 ---------------------------------------------------------------
 #n M062X/6-311++G(d,p) TD(NStates=1) EmpiricalDispersion=GD3 SP
 ---------------------------------------------------------------

 ----
 SP_1
 ----
 Symbolic Z-matrix:
 Charge =  1 Multiplicity = 1

                         Standard orientation:
 ---------------------------------------------------------------------
 Center     Atomic      Atomic             Coordinates (Angstroms)
 Number     Number       Type             X           Y           Z
 ---------------------------------------------------------------------
      1          6           0        2.492372   -1.332295   -0.007212
      2          6           0        3.701319   -0.649182   -0.016467
      3          6           0        3.684063    0.716619   -0.007993
      4          6           0        2.463537    1.374709    0.001716
      5          6           0       -2.462879    1.399892   -0.004195
      6          6           0       -3.683785    0.728391   -0.024912
      7          6           0       -3.701701   -0.659407   -0.017321
      8          6           0       -2.493024   -1.357103    0.002982
      9          6           0       -0.000315   -1.445705    0.014852
     10          6           0        0.000367    1.399895    0.015764
     11          6           0        1.261938   -0.683602   -0.000486
     12          6           0        1.237699    0.719199    0.012014
     13          6           0       -1.262213   -0.689006    0.026678
     14          6           0       -1.237299    0.723792    0.015080
     15          1           0        2.487513   -2.410494   -0.007549
     16          1           0        4.636468   -1.184103   -0.028553
     17          1           0        4.609545    1.262005   -0.032712
     18          1           0        2.468096    2.453208    0.002053
     19          1           0        0.000629    2.484995    0.017112
     20          1           0       -2.466913    2.508393   -0.003831
     21          1           0       -4.609039    1.284211   -0.017840
     22          1           0       -4.637146   -1.203881   -0.023581
     23          1           0       -2.488690   -2.467304    0.002617
     24          1           0        0.001286   -2.102381    0.874240
     25          1           0       -0.002232   -2.101829   -0.844956
 ---------------------------------------------------------------------

 SCF Done:  E(RM062X) =  -539.758203366     A.U. after   15 cycles

 Excitation energies and oscillator strengths:

 Excited State   1:      Singlet-A      2.9050 eV  426.79 nm  f=0.0288  <S**2>=0.000
      47 -> 48         0.70385
 This state for optimization and/or second-order correction.
 Total Energy, E(TD-HF/TD-DFT) =  -539.651445975
 Copying the excited state density for this state as the 1-particle RhoCI density.

 The electronic state is 1-A.
 Alpha  occ. eigenvalues --  -10.77398 -10.73241 -10.72768 -10.72404 -10.72077
 Alpha  occ. eigenvalues --  -10.71632 -10.71309 -10.71010 -10.70668 -10.70456
 Alpha  occ. eigenvalues --  -10.70259 -10.69696 -10.69537 -10.69149  -1.16840
 Alpha  occ. eigenvalues --   -1.12877  -1.07316  -1.06121  -1.01373  -1.00632
 Alpha  occ. eigenvalues --   -0.95953  -0.91480  -0.86320  -0.86177  -0.83731
 Alpha  occ. eigenvalues --   -0.78636  -0.76407  -0.74358  -0.69908  -0.69236
 Alpha  occ. eigenvalues --   -0.68970  -0.68240  -0.68192  -0.64620  -0.63804
 Alpha  occ. eigenvalues --   -0.63668  -0.61793  -0.60525  -0.59961  -0.59359
 Alpha  occ. eigenvalues --   -0.56553  -0.55339  -0.54607  -0.52647  -0.46869
 Alpha  occ. eigenvalues --   -0.46151  -0.44770
 Alpha virt. eigenvalues --   -0.26016  -0.14374  -0.14141  -0.12545  -0.11178
 Alpha virt. eigenvalues --   -0.10033  -0.09262  -0.08040  -0.07934  -0.07466
 Alpha virt. eigenvalues --   -0.07198  -0.07081  -0.05640  -0.05559  -0.05283

 Mulliken charges:
               1
     1  C    0.085859
     2  C   -0.412070
     3  C   -0.435518
     4  C    0.033471
     5  C    0.068786
     6  C   -0.445710
     7  C   -0.423241
     8  C    0.099434
     9  C   -0.282300
    10  C    0.099463
    11  C   -0.676657
    12  C    0.689641
    13  C   -0.704623
    14  C    0.696583
    15  H    0.232335
    16  H    0.254822
    17  H    0.244769
    18  H    0.219191
    19  H    0.185439
    20  H    0.233911
    21  H    0.245972
    22  H    0.257401
    23  H    0.245581
    24  H    0.244789
    25  H    0.242675
 Sum of Mulliken charges =   1.00000

 Dipole moment (field-independent basis, Debye):
    X=             -0.1188    Y=              0.2202    Z=             -0.0158  Tot=              0.2507
 Quadrupole moment (field-independent basis, Debye-Ang):
   XX=            -30.3528   YY=            -57.1602   ZZ=            -83.8211
   XY=              0.0759   XZ=             -0.1235   YZ=              0.0202

 Normal termination of Gaussian 16 at Tue Jul 26 17:44:24 2022.
