 Gaussian 16, Revision C.01,
 Gaussian 16:  ES64L-G16RevC.01  3-Jul-2019

 ---------------------------------------------------------------
 #n M062X/6-311++G(d,p) TD(NStates=1) EmpiricalDispersion=GD3 SP
 ---------------------------------------------------------------

 ----
 SP_5
 ----
 Symbolic Z-matrix:
 Charge =  1 Multiplicity = 1

                         Standard orientation:
 ---------------------------------------------------------------------
 Center     Atomic      Atomic             Coordinates (Angstroms)
 Number     Number       Type             X           Y           Z
 ---------------------------------------------------------------------
      1          6           0        2.491141   -1.282665   -0.015584
      2          6           0        3.700586   -0.628605   -0.084009
      3          6           0        3.684588    0.693201   -0.073851
      4          6           0        2.464784    1.324352   -0.003338
      5          6           0       -2.461491    1.450270   -0.009050
      6          6           0       -3.683197    0.752065   -0.090671
      7          6           0       -3.702498   -0.679724   -0.084934
      8          6           0       -2.494401   -1.406702   -0.005576
      9          6           0       -0.001577   -1.445820    0.074258
     10          6           0        0.001836    1.399774    0.078826
     11          6           0        1.261405   -0.672898    0.051915
     12          6           0        1.238488    0.709910    0.066185
     13          6           0       -1.262779   -0.699914    0.079039
     14          6           0       -1.236485    0.732873    0.069289
     15          1           0        2.485324   -2.296858   -0.017202
     16          1           0        4.635172   -1.144349   -0.132751
     17          1           0        4.610495    1.217787   -0.133903
     18          1           0        2.470306    2.342845   -0.001712
     19          1           0        0.003148    2.484864    0.085568
     20          1           0       -2.464389    2.618773   -0.007165
     21          1           0       -4.607967    1.328820   -0.118851
     22          1           0       -4.638562   -1.243234   -0.127923
     23          1           0       -2.491209   -2.580905   -0.007470
     24          1           0       -0.000605   -2.103601    0.932801
     25          1           0       -0.004124   -2.100837   -0.786393
 ---------------------------------------------------------------------

 SCF Done:  E(RM062X) =  -539.728242524     A.U. after   16 cycles

 Excitation energies and oscillator strengths:

 Excited State   1:      Singlet-A      2.8789 eV  430.66 nm  f=0.0340  <S**2>=0.000
      47 -> 48         0.69968
 This state for optimization and/or second-order correction.
 Total Energy, E(TD-HF/TD-DFT) =  -539.622444664
 Copying the excited state density for this state as the 1-particle RhoCI density.

 The electronic state is 1-A.
 Alpha  occ. eigenvalues --  -10.77366 -10.74209 -10.73063 -10.72854 -10.72586
 Alpha  occ. eigenvalues --  -10.71855 -10.71679 -10.71438 -10.70789 -10.70458
 Alpha  occ. eigenvalues --  -10.69761 -10.69393 -10.68087 -10.68067  -1.16963
 Alpha  occ. eigenvalues --   -1.12857  -1.07245  -1.06090  -1.01381  -1.00642
 Alpha  occ. eigenvalues --   -0.95903  -0.91434  -0.86605  -0.86074  -0.83577
 Alpha  occ. eigenvalues --   -0.78566  -0.76677  -0.74091  -0.70094  -0.69208
 Alpha  occ. eigenvalues --   -0.68966  -0.68244  -0.68109  -0.64456  -0.63652
 Alpha  occ. eigenvalues --   -0.63469  -0.61743  -0.60818  -0.59617  -0.59274
 Alpha  occ. eigenvalues --   -0.56529  -0.55305  -0.54494  -0.52637  -0.46791
 Alpha  occ. eigenvalues --   -0.46233  -0.44626
 Alpha virt. eigenvalues --   -0.26015  -0.14699  -0.14106  -0.12382  -0.11182
 Alpha virt. eigenvalues --   -0.10074  -0.09307  -0.08038  -0.07887  -0.07507
 Alpha virt. eigenvalues --   -0.07242  -0.07053  -0.05681  -0.05565  -0.05310

 Mulliken charges:
               1
     1  C    0.066627
     2  C   -0.377808
     3  C   -0.391331
     4  C   -0.060290
     5  C    0.103978
     6  C   -0.447237
     7  C   -0.428897
     8  C    0.121813
     9  C   -0.310231
    10  C    0.109830
    11  C   -0.577424
    12  C    0.628088
    13  C   -0.702541
    14  C    0.663148
    15  H    0.205929
    16  H    0.248631
    17  H    0.242264
    18  H    0.187549
    19  H    0.189439
    20  H    0.259671
    21  H    0.248419
    22  H    0.261706
    23  H    0.270052
    24  H    0.249335
    25  H    0.239280
 Sum of Mulliken charges =   1.00000

 Dipole moment (field-independent basis, Debye):
    X=             -0.5904    Y=              0.2093    Z=             -0.0801  Tot=              0.6315
 Quadrupole moment (field-independent basis, Debye-Ang):
   XX=            -30.3556   YY=            -56.9788   ZZ=            -83.7950
   XY=              0.3780   XZ=             -0.0874   YZ=              0.1009

 Normal termination of Gaussian 16 at Tue Jul 26 20:18:32 2022.
