 Gaussian 16, Revision C.01,
 Gaussian 16:  ES64L-G16RevC.01  3-Jul-2019

 ---------------------------------------------------------------
 #n M062X/6-311++G(d,p) TD(NStates=1) EmpiricalDispersion=GD3 SP
 ---------------------------------------------------------------

 ----
 SP_5
 ----
 Symbolic Z-matrix:
 Charge =  1 Multiplicity = 1

                         Standard orientation:
 ---------------------------------------------------------------------
 Center     Atomic      Atomic             Coordinates (Angstroms)
 Number     Number       Type             X           Y           Z
 ---------------------------------------------------------------------
      1          6           0        2.491135   -1.298413   -0.009871
      2          6           0        3.700722   -0.646390   -0.084142
      3          6           0        3.684729    0.684430   -0.082655
      4          6           0        2.464825    1.344619   -0.006918
      5          6           0       -2.461427    1.470565   -0.006778
      6          6           0       -3.683006    0.743323   -0.082592
      7          6           0       -3.702345   -0.697454   -0.084202
      8          6           0       -2.494419   -1.422396   -0.010011
      9          6           0       -0.001754   -1.453499    0.074955
     10          6           0        0.001725    1.429097    0.078176
     11          6           0        1.261300   -0.663613    0.065838
     12          6           0        1.238369    0.719215    0.067383
     13          6           0       -1.262934   -0.690566    0.065807
     14          6           0       -1.236605    0.742203    0.067408
     15          1           0        2.485324   -2.301606   -0.010992
     16          1           0        4.635400   -1.162167   -0.129718
     17          1           0        4.610772    1.216963   -0.127060
     18          1           0        2.470341    2.352112   -0.005792
     19          1           0        0.003030    2.510190    0.084384
     20          1           0       -2.464330    2.628068   -0.005485
     21          1           0       -4.607700    1.328089   -0.126938
     22          1           0       -4.638326   -1.260974   -0.129832
     23          1           0       -2.491223   -2.585600   -0.011311
     24          1           0       -0.002590   -2.146859    0.933780
     25          1           0       -0.002590   -2.144938   -0.785419
 ---------------------------------------------------------------------

 SCF Done:  E(RM062X) =  -539.728590931     A.U. after   16 cycles

 Excitation energies and oscillator strengths:

 Excited State   1:      Singlet-A      2.7977 eV  443.17 nm  f=0.0330  <S**2>=0.000
      47 -> 48         0.70144
 This state for optimization and/or second-order correction.
 Total Energy, E(TD-HF/TD-DFT) =  -539.625778119
 Copying the excited state density for this state as the 1-particle RhoCI density.

 The electronic state is 1-A.
 Alpha  occ. eigenvalues --  -10.77634 -10.74445 -10.73255 -10.72906 -10.72589
 Alpha  occ. eigenvalues --  -10.72092 -10.71747 -10.71634 -10.70990 -10.70983
 Alpha  occ. eigenvalues --  -10.69804 -10.69420 -10.68278 -10.68167  -1.16560
 Alpha  occ. eigenvalues --   -1.12441  -1.06882  -1.05696  -1.01309  -1.00209
 Alpha  occ. eigenvalues --   -0.95729  -0.91012  -0.86727  -0.85805  -0.83641
 Alpha  occ. eigenvalues --   -0.78326  -0.76345  -0.74100  -0.69720  -0.69199
 Alpha  occ. eigenvalues --   -0.68553  -0.68129  -0.68090  -0.64584  -0.64065
 Alpha  occ. eigenvalues --   -0.62908  -0.61815  -0.60342  -0.59285  -0.59008
 Alpha  occ. eigenvalues --   -0.56871  -0.55142  -0.54755  -0.52427  -0.46540
 Alpha  occ. eigenvalues --   -0.46138  -0.44367
 Alpha virt. eigenvalues --   -0.26086  -0.14969  -0.14079  -0.12621  -0.11183
 Alpha virt. eigenvalues --   -0.10127  -0.09277  -0.07981  -0.07911  -0.07517
 Alpha virt. eigenvalues --   -0.07252  -0.07123  -0.05687  -0.05589  -0.05362

 Mulliken charges:
               1
     1  C    0.070183
     2  C   -0.368359
     3  C   -0.384963
     4  C   -0.085892
     5  C    0.051331
     6  C   -0.444158
     7  C   -0.417559
     8  C    0.118478
     9  C   -0.370203
    10  C    0.100539
    11  C   -0.507712
    12  C    0.600181
    13  C   -0.670140
    14  C    0.692534
    15  H    0.204162
    16  H    0.249174
    17  H    0.244674
    18  H    0.182006
    19  H    0.194360
    20  H    0.256647
    21  H    0.252917
    22  H    0.261568
    23  H    0.269392
    24  H    0.255776
    25  H    0.245063
 Sum of Mulliken charges =   1.00000

 Dipole moment (field-independent basis, Debye):
    X=             -0.5866    Y=              0.1761    Z=             -0.0789  Tot=              0.6175
 Quadrupole moment (field-independent basis, Debye-Ang):
   XX=            -31.1148   YY=            -56.0731   ZZ=            -84.1153
   XY=              0.3872   XZ=              0.0347   YZ=              0.1058

 Normal termination of Gaussian 16 at Tue Jul 26 20:11:56 2022.
