 Gaussian 16, Revision C.01,
 Gaussian 16:  ES64L-G16RevC.01  3-Jul-2019

 ---------------------------------------------------------------
 #n M062X/6-311++G(d,p) TD(NStates=1) EmpiricalDispersion=GD3 SP
 ---------------------------------------------------------------

 ----
 SP_0
 ----
 Symbolic Z-matrix:
 Charge =  1 Multiplicity = 1

                         Standard orientation:
 ---------------------------------------------------------------------
 Center     Atomic      Atomic             Coordinates (Angstroms)
 Number     Number       Type             X           Y           Z
 ---------------------------------------------------------------------
      1          6           0        0.000000    2.492700    1.281837
      2          6           0       -0.040000    3.701500    0.583437
      3          6           0       -0.080000    3.683900   -0.757363
      4          6           0       -0.040000    2.463200   -1.306163
      5          6           0        0.040000   -2.463200   -1.306163
      6          6           0        0.080000   -3.683900   -0.757363
      7          6           0        0.040000   -3.701500    0.583437
      8          6           0       -0.000000   -2.492700    1.281837
      9          6           0        0.000000    0.000000    1.414837
     10          6           0       -0.000000   -0.000000   -1.282763
     11          6           0        0.055000    1.262100    0.723437
     12          6           0       -0.005000    1.237500   -0.684363
     13          6           0       -0.055000   -1.262100    0.723437
     14          6           0        0.005000   -1.237500   -0.684363
     15          1           0        0.000000    2.488100    2.420037
     16          1           0       -0.035000    4.636800    1.123137
     17          1           0       -0.010000    4.609300   -1.275963
     18          1           0       -0.040000    2.467500   -2.443663
     19          1           0       -0.000000   -0.000000   -2.383863
     20          1           0        0.040000   -2.467500   -2.443663
     21          1           0        0.010000   -4.609300   -1.275963
     22          1           0        0.035000   -4.636800    1.123137
     23          1           0       -0.000000   -2.488100    2.420037
     24          1           0       -0.859600    0.000000    1.927237
     25          1           0        0.859600   -0.000000    1.927237
 ---------------------------------------------------------------------

 SCF Done:  E(RM062X) =  -539.689150801     A.U. after   15 cycles

 Excitation energies and oscillator strengths:

 Excited State   1:      Singlet-A      3.1931 eV  388.29 nm  f=0.0267  <S**2>=0.000
      47 -> 48         0.70349
 This state for optimization and/or second-order correction.
 Total Energy, E(TD-HF/TD-DFT) =  -539.571806077
 Copying the excited state density for this state as the 1-particle RhoCI density.

 The electronic state is 1-A.
 Alpha  occ. eigenvalues --  -10.76369 -10.72150 -10.72149 -10.71555 -10.71553
 Alpha  occ. eigenvalues --  -10.71252 -10.71251 -10.71003 -10.71003 -10.69681
 Alpha  occ. eigenvalues --  -10.69681 -10.68744 -10.68744 -10.68524  -1.18504
 Alpha  occ. eigenvalues --   -1.14637  -1.09421  -1.07248  -1.02871  -1.01214
 Alpha  occ. eigenvalues --   -0.96769  -0.93129  -0.87264  -0.85778  -0.83776
 Alpha  occ. eigenvalues --   -0.79694  -0.77618  -0.74223  -0.73074  -0.71963
 Alpha  occ. eigenvalues --   -0.69520  -0.68590  -0.67070  -0.66262  -0.62585
 Alpha  occ. eigenvalues --   -0.62165  -0.61861  -0.61601  -0.60967  -0.59951
 Alpha  occ. eigenvalues --   -0.57428  -0.54941  -0.53426  -0.51896  -0.48222
 Alpha  occ. eigenvalues --   -0.46165  -0.45796
 Alpha virt. eigenvalues --   -0.25816  -0.14474  -0.13094  -0.11879  -0.11171
 Alpha virt. eigenvalues --   -0.09840  -0.09417  -0.08295  -0.08131  -0.07428
 Alpha virt. eigenvalues --   -0.07170  -0.06794  -0.05646  -0.05491  -0.05145

 Mulliken charges:
               1
     1  C    0.099326
     2  C   -0.442679
     3  C   -0.435146
     4  C    0.143197
     5  C    0.143197
     6  C   -0.435146
     7  C   -0.442679
     8  C    0.099326
     9  C   -0.367298
    10  C    0.050047
    11  C   -0.671814
    12  C    0.683637
    13  C   -0.671814
    14  C    0.683637
    15  H    0.248639
    16  H    0.257817
    17  H    0.220882
    18  H    0.239536
    19  H    0.181099
    20  H    0.239536
    21  H    0.220882
    22  H    0.257817
    23  H    0.248639
    24  H    0.224682
    25  H    0.224682
 Sum of Mulliken charges =   1.00000

 Dipole moment (field-independent basis, Debye):
    X=              0.0000    Y=             -0.0000    Z=             -0.3683  Tot=              0.3683
 Quadrupole moment (field-independent basis, Debye-Ang):
   XX=            -82.6031   YY=            -27.2188   ZZ=            -60.8568
   XY=              0.0106   XZ=             -0.0000   YZ=             -0.0000

 Normal termination of Gaussian 16 at Tue Jul 26 17:35:51 2022.
