 Gaussian 16, Revision C.01,
 Gaussian 16:  ES64L-G16RevC.01  3-Jul-2019

 ---------------------------------------------------------------
 #n M062X/6-311++G(d,p) TD(NStates=1) EmpiricalDispersion=GD3 SP
 ---------------------------------------------------------------

 ----
 SP_1
 ----
 Symbolic Z-matrix:
 Charge =  1 Multiplicity = 1

                         Standard orientation:
 ---------------------------------------------------------------------
 Center     Atomic      Atomic             Coordinates (Angstroms)
 Number     Number       Type             X           Y           Z
 ---------------------------------------------------------------------
      1          6           0        2.492359   -1.316573   -0.012442
      2          6           0        3.701316   -0.631459   -0.016101
      3          6           0        3.684105    0.725338    0.000543
      4          6           0        2.463561    1.354427    0.004805
      5          6           0       -2.462923    1.379606   -0.007020
      6          6           0       -3.683893    0.737107   -0.033295
      7          6           0       -3.701756   -0.641695   -0.017804
      8          6           0       -2.493006   -1.341394    0.007953
      9          6           0       -0.000280   -1.437991    0.014709
     10          6           0        0.000389    1.370609    0.015894
     11          6           0        1.261889   -0.692879   -0.014142
     12          6           0        1.237721    0.709917    0.010550
     13          6           0       -1.262111   -0.698301    0.040187
     14          6           0       -1.237273    0.714504    0.016682
     15          1           0        2.487499   -2.405772   -0.012882
     16          1           0        4.636436   -1.166376   -0.031154
     17          1           0        4.609474    1.262735   -0.040017
     18          1           0        2.468120    2.443926    0.005247
     19          1           0        0.000653    2.459709    0.017353
     20          1           0       -2.466956    2.499106   -0.006531
     21          1           0       -4.609077    1.284918   -0.010276
     22          1           0       -4.637206   -1.186171   -0.021206
     23          1           0       -2.488673   -2.462595    0.007461
     24          1           0        0.003091   -2.058754    0.874040
     25          1           0       -0.003946   -2.058027   -0.845145
 ---------------------------------------------------------------------

 SCF Done:  E(RM062X) =  -539.750831073     A.U. after   15 cycles

 Excitation energies and oscillator strengths:

 Excited State   1:      Singlet-A      2.9840 eV  415.50 nm  f=0.0286  <S**2>=0.000
      47 -> 48         0.70349
 This state for optimization and/or second-order correction.
 Total Energy, E(TD-HF/TD-DFT) =  -539.641171674
 Copying the excited state density for this state as the 1-particle RhoCI density.

 The electronic state is 1-A.
 Alpha  occ. eigenvalues --  -10.77133 -10.73012 -10.72538 -10.72217 -10.71890
 Alpha  occ. eigenvalues --  -10.71594 -10.71303 -10.70975 -10.70657 -10.70194
 Alpha  occ. eigenvalues --  -10.69944 -10.69503 -10.69470 -10.68955  -1.17241
 Alpha  occ. eigenvalues --   -1.13299  -1.07760  -1.06460  -1.01531  -1.00986
 Alpha  occ. eigenvalues --   -0.96137  -0.91904  -0.86460  -0.86195  -0.83681
 Alpha  occ. eigenvalues --   -0.78889  -0.76752  -0.74311  -0.70384  -0.69933
 Alpha  occ. eigenvalues --   -0.69233  -0.68247  -0.67818  -0.64923  -0.63788
 Alpha  occ. eigenvalues --   -0.63297  -0.61716  -0.60994  -0.60262  -0.59602
 Alpha  occ. eigenvalues --   -0.56283  -0.55742  -0.53970  -0.52858  -0.47176
 Alpha  occ. eigenvalues --   -0.46185  -0.45036
 Alpha virt. eigenvalues --   -0.25952  -0.14228  -0.14036  -0.12337  -0.11179
 Alpha virt. eigenvalues --   -0.09981  -0.09295  -0.08101  -0.07934  -0.07456
 Alpha virt. eigenvalues --   -0.07190  -0.07007  -0.05638  -0.05538  -0.05237

 Mulliken charges:
               1
     1  C    0.066616
     2  C   -0.424149
     3  C   -0.436106
     4  C    0.068540
     5  C    0.106360
     6  C   -0.444876
     7  C   -0.435728
     8  C    0.085022
     9  C   -0.240001
    10  C    0.109342
    11  C   -0.713749
    12  C    0.699442
    13  C   -0.730864
    14  C    0.697537
    15  H    0.234384
    16  H    0.254836
    17  H    0.239736
    18  H    0.223975
    19  H    0.181824
    20  H    0.238125
    21  H    0.240591
    22  H    0.257544
    23  H    0.247435
    24  H    0.238081
    25  H    0.236080
 Sum of Mulliken charges =   1.00000

 Dipole moment (field-independent basis, Debye):
    X=             -0.1193    Y=              0.2538    Z=             -0.0161  Tot=              0.2809
 Quadrupole moment (field-independent basis, Debye-Ang):
   XX=            -29.5786   YY=            -58.0708   ZZ=            -83.5063
   XY=              0.0740   XZ=             -0.2438   YZ=              0.0189

 Normal termination of Gaussian 16 at Tue Jul 26 17:48:28 2022.
