 Gaussian 16, Revision C.01,
 Gaussian 16:  ES64L-G16RevC.01  3-Jul-2019

 ---------------------------------------------------------------
 #n M062X/6-311++G(d,p) TD(NStates=1) EmpiricalDispersion=GD3 SP
 ---------------------------------------------------------------

 ----
 SP_0
 ----
 Symbolic Z-matrix:
 Charge =  1 Multiplicity = 1

                         Standard orientation:
 ---------------------------------------------------------------------
 Center     Atomic      Atomic             Coordinates (Angstroms)
 Number     Number       Type             X           Y           Z
 ---------------------------------------------------------------------
      1          6           0        0.000000    2.492700    1.297553
      2          6           0       -0.032000    3.701500    0.601153
      3          6           0       -0.064000    3.683900   -0.748647
      4          6           0       -0.032000    2.463200   -1.326447
      5          6           0        0.032000   -2.463200   -1.326447
      6          6           0        0.064000   -3.683900   -0.748647
      7          6           0        0.032000   -3.701500    0.601153
      8          6           0       -0.000000   -2.492700    1.297553
      9          6           0       -0.000000    0.000000    1.422553
     10          6           0        0.000000   -0.000000   -1.312047
     11          6           0        0.044000    1.262100    0.714153
     12          6           0       -0.004000    1.237500   -0.693647
     13          6           0       -0.044000   -1.262100    0.714153
     14          6           0        0.004000   -1.237500   -0.693647
     15          1           0        0.000000    2.488100    2.424753
     16          1           0       -0.028000    4.636800    1.140853
     17          1           0       -0.008000    4.609300   -1.275247
     18          1           0       -0.032000    2.467500   -2.452947
     19          1           0        0.000000   -0.000000   -2.409147
     20          1           0        0.032000   -2.467500   -2.452947
     21          1           0        0.008000   -4.609300   -1.275247
     22          1           0        0.028000   -4.636800    1.140853
     23          1           0       -0.000000   -2.488100    2.424753
     24          1           0       -0.859600   -0.000000    1.970953
     25          1           0        0.859600   -0.000000    1.970953
 ---------------------------------------------------------------------

 SCF Done:  E(RM062X) =  -539.716974342     A.U. after   14 cycles

 Excitation energies and oscillator strengths:

 Excited State   1:      Singlet-A      3.1289 eV  396.25 nm  f=0.0274  <S**2>=0.000
      47 -> 48         0.70364
 This state for optimization and/or second-order correction.
 Total Energy, E(TD-HF/TD-DFT) =  -539.601987696
 Copying the excited state density for this state as the 1-particle RhoCI density.

 The electronic state is 1-A.
 Alpha  occ. eigenvalues --  -10.76618 -10.72345 -10.72345 -10.71710 -10.71708
 Alpha  occ. eigenvalues --  -10.71249 -10.71249 -10.70987 -10.70987 -10.69723
 Alpha  occ. eigenvalues --  -10.69723 -10.68975 -10.68888 -10.68888  -1.18070
 Alpha  occ. eigenvalues --   -1.14179  -1.08828  -1.07011  -1.02360  -1.01197
 Alpha  occ. eigenvalues --   -0.96543  -0.92734  -0.87004  -0.85922  -0.83699
 Alpha  occ. eigenvalues --   -0.79422  -0.77357  -0.74241  -0.71979  -0.71430
 Alpha  occ. eigenvalues --   -0.69381  -0.68456  -0.66814  -0.66338  -0.63034
 Alpha  occ. eigenvalues --   -0.62246  -0.61829  -0.61648  -0.60796  -0.59939
 Alpha  occ. eigenvalues --   -0.56957  -0.55291  -0.53266  -0.52613  -0.47863
 Alpha  occ. eigenvalues --   -0.46184  -0.45554
 Alpha virt. eigenvalues --   -0.25852  -0.14378  -0.13402  -0.12003  -0.11177
 Alpha virt. eigenvalues --   -0.09883  -0.09370  -0.08228  -0.08010  -0.07436
 Alpha virt. eigenvalues --   -0.07174  -0.06847  -0.05638  -0.05504  -0.05165

 Mulliken charges:
               1
     1  C   -0.000310
     2  C   -0.438977
     3  C   -0.433153
     4  C    0.124968
     5  C    0.124968
     6  C   -0.433153
     7  C   -0.438977
     8  C   -0.000310
     9  C   -0.309383
    10  C    0.099524
    11  C   -0.655146
    12  C    0.724351
    13  C   -0.655146
    14  C    0.724351
    15  H    0.245940
    16  H    0.257080
    17  H    0.226713
    18  H    0.238701
    19  H    0.179835
    20  H    0.238701
    21  H    0.226713
    22  H    0.257080
    23  H    0.245940
    24  H    0.224845
    25  H    0.224845
 Sum of Mulliken charges =   1.00000

 Dipole moment (field-independent basis, Debye):
    X=              0.0000    Y=              0.0000    Z=             -0.3264  Tot=              0.3264
 Quadrupole moment (field-independent basis, Debye-Ang):
   XX=            -82.9002   YY=            -28.0052   ZZ=            -59.9212
   XY=              0.0216   XZ=             -0.0000   YZ=             -0.0000

 Normal termination of Gaussian 16 at Tue Jul 26 17:33:14 2022.
