 Gaussian 16, Revision C.01,
 Gaussian 16:  ES64L-G16RevC.01  3-Jul-2019

 ---------------------------------------------------------------
 #n M062X/6-311++G(d,p) TD(NStates=1) EmpiricalDispersion=GD3 SP
 ---------------------------------------------------------------

 ----
 SP_3
 ----
 Symbolic Z-matrix:
 Charge =  1 Multiplicity = 1

                         Standard orientation:
 ---------------------------------------------------------------------
 Center     Atomic      Atomic             Coordinates (Angstroms)
 Number     Number       Type             X           Y           Z
 ---------------------------------------------------------------------
      1          6           0        2.491744   -1.307483   -0.011413
      2          6           0        3.700947   -0.638915   -0.050243
      3          6           0        3.684331    0.704889   -0.040914
      4          6           0        2.464172    1.349529   -0.000796
      5          6           0       -2.462197    1.425079   -0.006640
      6          6           0       -3.683496    0.740206   -0.057800
      7          6           0       -3.702094   -0.669588   -0.051121
      8          6           0       -2.493700   -1.381906   -0.001280
      9          6           0       -0.000946   -1.445743    0.044556
     10          6           0        0.001101    1.399855    0.047294
     11          6           0        1.261669   -0.678233    0.025712
     12          6           0        1.238096    0.714572    0.039102
     13          6           0       -1.262493   -0.694443    0.052862
     14          6           0       -1.236894    0.728350    0.042181
     15          1           0        2.486392   -2.353679   -0.012410
     16          1           0        4.635810   -1.164258   -0.080663
     17          1           0        4.610030    1.239864   -0.083294
     18          1           0        2.469227    2.398025    0.000204
     19          1           0        0.001888    2.484951    0.051338
     20          1           0       -2.465678    2.563581   -0.005536
     21          1           0       -4.608513    1.306482   -0.068361
     22          1           0       -4.637844   -1.223591   -0.075739
     23          1           0       -2.489922   -2.524108   -0.002389
     24          1           0        0.000341   -2.102971    0.903523
     25          1           0       -0.003178   -2.101314   -0.815673
 ---------------------------------------------------------------------

 SCF Done:  E(RM062X) =  -539.748268096     A.U. after   15 cycles

 Excitation energies and oscillator strengths:

 Excited State   1:      Singlet-A      2.8962 eV  428.09 nm  f=0.0307  <S**2>=0.000
      47 -> 48         0.70208
 This state for optimization and/or second-order correction.
 Total Energy, E(TD-HF/TD-DFT) =  -539.641832919
 Copying the excited state density for this state as the 1-particle RhoCI density.

 The electronic state is 1-A.
 Alpha  occ. eigenvalues --  -10.77387 -10.73723 -10.72732 -10.72304 -10.72248
 Alpha  occ. eigenvalues --  -10.71950 -10.71755 -10.70974 -10.70457 -10.70385
 Alpha  occ. eigenvalues --  -10.70243 -10.70028 -10.68812 -10.68606  -1.16881
 Alpha  occ. eigenvalues --   -1.12870  -1.07292  -1.06110  -1.01376  -1.00636
 Alpha  occ. eigenvalues --   -0.95937  -0.91464  -0.86421  -0.86139  -0.83677
 Alpha  occ. eigenvalues --   -0.78613  -0.76504  -0.74261  -0.69973  -0.69225
 Alpha  occ. eigenvalues --   -0.68969  -0.68246  -0.68161  -0.64565  -0.63754
 Alpha  occ. eigenvalues --   -0.63600  -0.61777  -0.60650  -0.59818  -0.59331
 Alpha  occ. eigenvalues --   -0.56546  -0.55328  -0.54568  -0.52644  -0.46842
 Alpha  occ. eigenvalues --   -0.46180  -0.44720
 Alpha virt. eigenvalues --   -0.26016  -0.14505  -0.14112  -0.12486  -0.11179
 Alpha virt. eigenvalues --   -0.10046  -0.09277  -0.08039  -0.07918  -0.07480
 Alpha virt. eigenvalues --   -0.07213  -0.07071  -0.05655  -0.05559  -0.05292

 Mulliken charges:
               1
     1  C    0.074584
     2  C   -0.396669
     3  C   -0.417503
     4  C   -0.010804
     5  C    0.092628
     6  C   -0.449212
     7  C   -0.429035
     8  C    0.112485
     9  C   -0.290600
    10  C    0.103586
    11  C   -0.633429
    12  C    0.666078
    13  C   -0.714332
    14  C    0.686800
    15  H    0.219013
    16  H    0.251901
    17  H    0.243536
    18  H    0.203641
    19  H    0.186831
    20  H    0.247481
    21  H    0.247174
    22  H    0.259680
    23  H    0.258286
    24  H    0.247056
    25  H    0.240825
 Sum of Mulliken charges =   1.00000

 Dipole moment (field-independent basis, Debye):
    X=             -0.3557    Y=              0.2166    Z=             -0.0477  Tot=              0.4191
 Quadrupole moment (field-independent basis, Debye-Ang):
   XX=            -30.3535   YY=            -57.0998   ZZ=            -83.8124
   XY=              0.2274   XZ=             -0.1114   YZ=              0.0607

 Normal termination of Gaussian 16 at Tue Jul 26 18:59:26 2022.
