 Gaussian 16, Revision C.01,
 Gaussian 16:  ES64L-G16RevC.01  3-Jul-2019

 ---------------------------------------------------------------
 #n M062X/6-311++G(d,p) TD(NStates=1) EmpiricalDispersion=GD3 SP
 ---------------------------------------------------------------

 ----
 SP_4
 ----
 Symbolic Z-matrix:
 Charge =  1 Multiplicity = 1

                         Standard orientation:
 ---------------------------------------------------------------------
 Center     Atomic      Atomic             Coordinates (Angstroms)
 Number     Number       Type             X           Y           Z
 ---------------------------------------------------------------------
      1          6           0        2.491436   -1.310815   -0.007908
      2          6           0        3.700873   -0.651529   -0.067318
      3          6           0        3.684568    0.690287   -0.066119
      4          6           0        2.464511    1.357211   -0.005524
      5          6           0       -2.461794    1.457967   -0.005435
      6          6           0       -3.683190    0.737400   -0.066079
      7          6           0       -3.702170   -0.692382   -0.067356
      8          6           0       -2.494062   -1.410002   -0.007997
      9          6           0       -0.001403   -1.453469    0.059965
     10          6           0        0.001380    1.429128    0.062540
     11          6           0        1.261457   -0.666281    0.052668
     12          6           0        1.238197    0.721541    0.053908
     13          6           0       -1.262765   -0.687844    0.052648
     14          6           0       -1.236786    0.739931    0.053924
     15          1           0        2.485852   -2.330010   -0.008818
     16          1           0        4.635670   -1.172100   -0.103783
     17          1           0        4.610488    1.228025   -0.101639
     18          1           0        2.469799    2.379706   -0.004610
     19          1           0        0.002424    2.510224    0.067506
     20          1           0       -2.464990    2.600470   -0.004414
     21          1           0       -4.608031    1.316925   -0.101561
     22          1           0       -4.638010   -1.251146   -0.103856
     23          1           0       -2.490570   -2.557205   -0.009022
     24          1           0       -0.002072   -2.146637    0.918945
     25          1           0       -0.002072   -2.145101   -0.800254
 ---------------------------------------------------------------------

 SCF Done:  E(RM062X) =  -539.740044509     A.U. after   16 cycles

 Excitation energies and oscillator strengths:

 Excited State   1:      Singlet-A      2.8066 eV  441.75 nm  f=0.0316  <S**2>=0.000
      47 -> 48         0.70225
 This state for optimization and/or second-order correction.
 Total Energy, E(TD-HF/TD-DFT) =  -539.636902555
 Copying the excited state density for this state as the 1-particle RhoCI density.

 The electronic state is 1-A.
 Alpha  occ. eigenvalues --  -10.77646 -10.74202 -10.73091 -10.72603 -10.72315
 Alpha  occ. eigenvalues --  -10.72274 -10.71792 -10.71397 -10.70982 -10.70719
 Alpha  occ. eigenvalues --  -10.70117 -10.69734 -10.68546 -10.68528  -1.16518
 Alpha  occ. eigenvalues --   -1.12450  -1.06904  -1.05708  -1.01310  -1.00201
 Alpha  occ. eigenvalues --   -0.95748  -0.91027  -0.86620  -0.85839  -0.83701
 Alpha  occ. eigenvalues --   -0.78352  -0.76242  -0.74202  -0.69666  -0.69211
 Alpha  occ. eigenvalues --   -0.68538  -0.68152  -0.68095  -0.64641  -0.64142
 Alpha  occ. eigenvalues --   -0.62964  -0.61834  -0.60257  -0.59390  -0.59038
 Alpha  occ. eigenvalues --   -0.56882  -0.55168  -0.54785  -0.52431  -0.46570
 Alpha  occ. eigenvalues --   -0.46110  -0.44414
 Alpha virt. eigenvalues --   -0.26087  -0.14873  -0.14077  -0.12673  -0.11181
 Alpha virt. eigenvalues --   -0.10112  -0.09260  -0.07981  -0.07932  -0.07502
 Alpha virt. eigenvalues --   -0.07235  -0.07130  -0.05673  -0.05585  -0.05351

 Mulliken charges:
               1
     1  C    0.073848
     2  C   -0.377882
     3  C   -0.400500
     4  C   -0.062683
     5  C    0.050123
     6  C   -0.446625
     7  C   -0.417900
     8  C    0.114607
     9  C   -0.356576
    10  C    0.098379
    11  C   -0.538714
    12  C    0.621811
    13  C   -0.673485
    14  C    0.698368
    15  H    0.210610
    16  H    0.250782
    17  H    0.245522
    18  H    0.190219
    19  H    0.192991
    20  H    0.250368
    21  H    0.252135
    22  H    0.260628
    23  H    0.263376
    24  H    0.254656
    25  H    0.245941
 Sum of Mulliken charges =   1.00000

 Dipole moment (field-independent basis, Debye):
    X=             -0.4704    Y=              0.1803    Z=             -0.0629  Tot=              0.5077
 Quadrupole moment (field-independent basis, Debye-Ang):
   XX=            -31.1155   YY=            -56.1411   ZZ=            -84.1250
   XY=              0.3102   XZ=              0.0222   YZ=              0.0848

 Normal termination of Gaussian 16 at Tue Jul 26 19:31:00 2022.
