 Gaussian 16, Revision C.01,
 Gaussian 16:  ES64L-G16RevC.01  3-Jul-2019

 ---------------------------------------------------------------
 #n M062X/6-311++G(d,p) TD(NStates=1) EmpiricalDispersion=GD3 SP
 ---------------------------------------------------------------

 ----
 SP_4
 ----
 Symbolic Z-matrix:
 Charge =  1 Multiplicity = 1

                         Standard orientation:
 ---------------------------------------------------------------------
 Center     Atomic      Atomic             Coordinates (Angstroms)
 Number     Number       Type             X           Y           Z
 ---------------------------------------------------------------------
      1          6           0        2.491353   -1.232058   -0.035950
      2          6           0        3.700509   -0.562691   -0.066316
      3          6           0        3.684529    0.733998   -0.022248
      4          6           0        2.464584    1.255836    0.011813
      5          6           0       -2.462286    1.356518   -0.017450
      6          6           0       -3.684483    0.781122   -0.106675
      7          6           0       -3.702963   -0.603775   -0.070650
      8          6           0       -2.493881   -1.331562    0.014787
      9          6           0       -0.000692   -1.415014    0.057016
     10          6           0        0.001823    1.282572    0.065107
     11          6           0        1.261352   -0.712566   -0.016794
     12          6           0        1.238662    0.675069    0.047617
     13          6           0       -1.261611   -0.734621    0.118975
     14          6           0       -1.236295    0.693330    0.063009
     15          1           0        2.485751   -2.306249   -0.039125
     16          1           0        4.634855   -1.083108   -0.118450
     17          1           0        4.609260    1.232080   -0.136222
     18          1           0        2.469888    2.333327    0.015001
     19          1           0        0.002891    2.383655    0.072410
     20          1           0       -2.465469    2.554016   -0.013814
     21          1           0       -4.608984    1.320452   -0.061585
     22          1           0       -4.639053   -1.162536   -0.093750
     23          1           0       -2.490402   -2.533761    0.011134
     24          1           0        0.007630   -1.929998    0.915030
     25          1           0       -0.009970   -1.924825   -0.804072
 ---------------------------------------------------------------------

 SCF Done:  E(RM062X) =  -539.669984608     A.U. after   16 cycles

 Excitation energies and oscillator strengths:

 Excited State   1:      Singlet-A      3.1677 eV  391.40 nm  f=0.0375  <S**2>=0.000
      46 -> 48         0.23187
      47 -> 48         0.66408
 This state for optimization and/or second-order correction.
 Total Energy, E(TD-HF/TD-DFT) =  -539.553574380
 Copying the excited state density for this state as the 1-particle RhoCI density.

 The electronic state is 1-A.
 Alpha  occ. eigenvalues --  -10.76349 -10.73108 -10.72471 -10.72310 -10.72200
 Alpha  occ. eigenvalues --  -10.71231 -10.71116 -10.70907 -10.70036 -10.69843
 Alpha  occ. eigenvalues --  -10.69701 -10.68523 -10.68219 -10.67659  -1.18617
 Alpha  occ. eigenvalues --   -1.14640  -1.09327  -1.07234  -1.02903  -1.01189
 Alpha  occ. eigenvalues --   -0.96732  -0.93092  -0.87218  -0.85920  -0.83680
 Alpha  occ. eigenvalues --   -0.79652  -0.77753  -0.74114  -0.73072  -0.72100
 Alpha  occ. eigenvalues --   -0.69505  -0.68502  -0.66931  -0.66231  -0.62635
 Alpha  occ. eigenvalues --   -0.62276  -0.61672  -0.61522  -0.60794  -0.59883
 Alpha  occ. eigenvalues --   -0.57382  -0.54936  -0.53438  -0.51824  -0.48182
 Alpha  occ. eigenvalues --   -0.46301  -0.45589
 Alpha virt. eigenvalues --   -0.25821  -0.14529  -0.13308  -0.11706  -0.11172
 Alpha virt. eigenvalues --   -0.09872  -0.09446  -0.08294  -0.08107  -0.07456
 Alpha virt. eigenvalues --   -0.07202  -0.06757  -0.05673  -0.05494  -0.05156

 Mulliken charges:
               1
     1  C    0.083715
     2  C   -0.413166
     3  C   -0.438699
     4  C    0.083727
     5  C    0.250584
     6  C   -0.419216
     7  C   -0.444739
     8  C    0.085967
     9  C   -0.377674
    10  C    0.034266
    11  C   -0.569473
    12  C    0.431193
    13  C   -0.730298
    14  C    0.867674
    15  H    0.222840
    16  H    0.251215
    17  H    0.219326
    18  H    0.214205
    19  H    0.180262
    20  H    0.262775
    21  H    0.222501
    22  H    0.263733
    23  H    0.269550
    24  H    0.226575
    25  H    0.223156
 Sum of Mulliken charges =   1.00000

 Dipole moment (field-independent basis, Debye):
    X=             -0.4795    Y=              0.3620    Z=             -0.0707  Tot=              0.6049
 Quadrupole moment (field-independent basis, Debye-Ang):
   XX=            -27.2454   YY=            -60.7361   ZZ=            -82.5779
   XY=              0.2734   XZ=             -0.5459   YZ=              0.0509

 Normal termination of Gaussian 16 at Tue Jul 26 20:05:13 2022.
