 Gaussian 16, Revision C.01,
 Gaussian 16:  ES64L-G16RevC.01  3-Jul-2019

 ---------------------------------------------------------------
 #n M062X/6-311++G(d,p) TD(NStates=1) EmpiricalDispersion=GD3 SP
 ---------------------------------------------------------------

 ----
 SP_4
 ----
 Symbolic Z-matrix:
 Charge =  1 Multiplicity = 1

                         Standard orientation:
 ---------------------------------------------------------------------
 Center     Atomic      Atomic             Coordinates (Angstroms)
 Number     Number       Type             X           Y           Z
 ---------------------------------------------------------------------
      1          6           0        2.491417   -1.263578   -0.024711
      2          6           0        3.700603   -0.598232   -0.066732
      3          6           0        3.684395    0.716531   -0.039851
      4          6           0        2.464488    1.296392    0.004869
      5          6           0       -2.462021    1.397092   -0.012661
      6          6           0       -3.683814    0.763611   -0.090499
      7          6           0       -3.702594   -0.639220   -0.069350
      8          6           0       -2.493985   -1.362924    0.005698
      9          6           0       -0.000977   -1.430394    0.058245
     10          6           0        0.001646    1.341198    0.064091
     11          6           0        1.261544   -0.694088    0.011047
     12          6           0        1.238479    0.693656    0.050125
     13          6           0       -1.262224   -0.715871    0.092503
     14          6           0       -1.236495    0.711979    0.059364
     15          1           0        2.485821   -2.315771   -0.026902
     16          1           0        4.635154   -1.118721   -0.112573
     17          1           0        4.609785    1.230430   -0.122449
     18          1           0        2.469786    2.351885    0.007069
     19          1           0        0.002705    2.434287    0.070396
     20          1           0       -2.465209    2.572593   -0.010155
     21          1           0       -4.608635    1.319061   -0.077644
     22          1           0       -4.638609   -1.197975   -0.097784
     23          1           0       -2.490502   -2.543125    0.003181
     24          1           0        0.003749   -2.016611    0.916594
     25          1           0       -0.006810   -2.012975   -0.802569
 ---------------------------------------------------------------------

 SCF Done:  E(RM062X) =  -539.718461198     A.U. after   15 cycles

 Excitation energies and oscillator strengths:

 Excited State   1:      Singlet-A      3.0388 eV  408.01 nm  f=0.0339  <S**2>=0.000
      46 -> 48         0.11732
      47 -> 48         0.69402
 This state for optimization and/or second-order correction.
 Total Energy, E(TD-HF/TD-DFT) =  -539.606787770
 Copying the excited state density for this state as the 1-particle RhoCI density.

 The electronic state is 1-A.
 Alpha  occ. eigenvalues --  -10.76853 -10.73515 -10.72550 -10.72466 -10.72275
 Alpha  occ. eigenvalues --  -10.71630 -10.71230 -10.71208 -10.70150 -10.70023
 Alpha  occ. eigenvalues --  -10.69686 -10.69450 -10.68315 -10.67962  -1.17743
 Alpha  occ. eigenvalues --   -1.13726  -1.08203  -1.06734  -1.01921  -1.01122
 Alpha  occ. eigenvalues --   -0.96299  -0.92290  -0.86701  -0.86197  -0.83577
 Alpha  occ. eigenvalues --   -0.79108  -0.77220  -0.74128  -0.71038  -0.70924
 Alpha  occ. eigenvalues --   -0.69274  -0.68278  -0.67317  -0.65466  -0.63385
 Alpha  occ. eigenvalues --   -0.62657  -0.61671  -0.61566  -0.60326  -0.59743
 Alpha  occ. eigenvalues --   -0.56462  -0.55637  -0.53251  -0.53051  -0.47471
 Alpha  occ. eigenvalues --   -0.46261  -0.45172
 Alpha virt. eigenvalues --   -0.25899  -0.14382  -0.13856  -0.12020  -0.11183
 Alpha virt. eigenvalues --   -0.09959  -0.09360  -0.08162  -0.07939  -0.07472
 Alpha virt. eigenvalues --   -0.07210  -0.06901  -0.05664  -0.05522  -0.05212

 Mulliken charges:
               1
     1  C    0.007588
     2  C   -0.407195
     3  C   -0.409636
     4  C    0.034438
     5  C    0.176914
     6  C   -0.443116
     7  C   -0.449514
     8  C    0.094808
     9  C   -0.231593
    10  C    0.120447
    11  C   -0.688611
    12  C    0.671039
    13  C   -0.705811
    14  C    0.656607
    15  H    0.216682
    16  H    0.250267
    17  H    0.232705
    18  H    0.205941
    19  H    0.182007
    20  H    0.259673
    21  H    0.235366
    22  H    0.261473
    23  H    0.266994
    24  H    0.234944
    25  H    0.227582
 Sum of Mulliken charges =   1.00000

 Dipole moment (field-independent basis, Debye):
    X=             -0.4774    Y=              0.2826    Z=             -0.0663  Tot=              0.5587
 Quadrupole moment (field-independent basis, Debye-Ang):
   XX=            -28.8067   YY=            -58.8739   ZZ=            -83.1806
   XY=              0.2879   XZ=             -0.3334   YZ=              0.0692

 Normal termination of Gaussian 16 at Tue Jul 26 19:51:29 2022.
