 Gaussian 16, Revision C.01,
 Gaussian 16:  ES64L-G16RevC.01  3-Jul-2019

 ---------------------------------------------------------------
 #n M062X/6-311++G(d,p) TD(NStates=1) EmpiricalDispersion=GD3 SP
 ---------------------------------------------------------------

 ----
 SP_4
 ----
 Symbolic Z-matrix:
 Charge =  1 Multiplicity = 1

                         Standard orientation:
 ---------------------------------------------------------------------
 Center     Atomic      Atomic             Coordinates (Angstroms)
 Number     Number       Type             X           Y           Z
 ---------------------------------------------------------------------
      1          6           0        2.491440   -1.295075   -0.013502
      2          6           0        3.700766   -0.633765   -0.067127
      3          6           0        3.684461    0.699040   -0.057381
      4          6           0        2.464481    1.336940   -0.002063
      5          6           0       -2.461847    1.437674   -0.007849
      6          6           0       -3.683348    0.746130   -0.074238
      7          6           0       -3.702294   -0.674662   -0.068025
      8          6           0       -2.494047   -1.394305   -0.003424
      9          6           0       -0.001262   -1.445777    0.059408
     10          6           0        0.001468    1.399819    0.063060
     11          6           0        1.261536   -0.675561    0.038812
     12          6           0        1.238292    0.712245    0.052644
     13          6           0       -1.262635   -0.697174    0.065952
     14          6           0       -1.236690    0.730616    0.055734
     15          1           0        2.485851   -2.325269   -0.014814
     16          1           0        4.635489   -1.154312   -0.106710
     17          1           0        4.610265    1.228818   -0.108595
     18          1           0        2.469773    2.370435   -0.000746
     19          1           0        0.002518    2.484913    0.068452
     20          1           0       -2.465040    2.591176   -0.006360
     21          1           0       -4.608243    1.317643   -0.093610
     22          1           0       -4.638201   -1.233421   -0.101828
     23          1           0       -2.490559   -2.552508   -0.004920
     24          1           0       -0.000132   -2.103281    0.918163
     25          1           0       -0.003651   -2.101071   -0.801032
 ---------------------------------------------------------------------

 SCF Done:  E(RM062X) =  -539.739531741     A.U. after   15 cycles

 Excitation energies and oscillator strengths:

 Excited State   1:      Singlet-A      2.8886 eV  429.21 nm  f=0.0322  <S**2>=0.000
      47 -> 48         0.70088
 This state for optimization and/or second-order correction.
 Total Energy, E(TD-HF/TD-DFT) =  -539.633376482
 Copying the excited state density for this state as the 1-particle RhoCI density.

 The electronic state is 1-A.
 Alpha  occ. eigenvalues --  -10.77378 -10.73965 -10.72897 -10.72552 -10.72268
 Alpha  occ. eigenvalues --  -10.72078 -10.71596 -10.71328 -10.70516 -10.70457
 Alpha  occ. eigenvalues --  -10.70073 -10.69709 -10.68449 -10.68335  -1.16917
 Alpha  occ. eigenvalues --   -1.12864  -1.07271  -1.06101  -1.01378  -1.00638
 Alpha  occ. eigenvalues --   -0.95922  -0.91451  -0.86504  -0.86110  -0.83632
 Alpha  occ. eigenvalues --   -0.78593  -0.76583  -0.74183  -0.70028  -0.69217
 Alpha  occ. eigenvalues --   -0.68968  -0.68246  -0.68137  -0.64518  -0.63709
 Alpha  occ. eigenvalues --   -0.63541  -0.61762  -0.60732  -0.59722  -0.59306
 Alpha  occ. eigenvalues --   -0.56539  -0.55319  -0.54535  -0.52641  -0.46819
 Alpha  occ. eigenvalues --   -0.46204  -0.44678
 Alpha virt. eigenvalues --   -0.26015  -0.14596  -0.14105  -0.12438  -0.11180
 Alpha virt. eigenvalues --   -0.10058  -0.09290  -0.08038  -0.07904  -0.07492
 Alpha virt. eigenvalues --   -0.07226  -0.07063  -0.05667  -0.05561  -0.05299

 Mulliken charges:
               1
     1  C    0.070220
     2  C   -0.387662
     3  C   -0.405407
     4  C   -0.035163
     5  C    0.099874
     6  C   -0.448839
     7  C   -0.429691
     8  C    0.117779
     9  C   -0.298770
    10  C    0.106622
    11  C   -0.606864
    12  C    0.648683
    13  C   -0.711277
    14  C    0.676401
    15  H    0.212431
    16  H    0.250308
    17  H    0.242905
    18  H    0.195647
    19  H    0.188001
    20  H    0.253764
    21  H    0.247787
    22  H    0.260721
    23  H    0.264313
    24  H    0.248202
    25  H    0.240016
 Sum of Mulliken charges =   1.00000

 Dipole moment (field-independent basis, Debye):
    X=             -0.4734    Y=              0.2134    Z=             -0.0638  Tot=              0.5232
 Quadrupole moment (field-independent basis, Debye-Ang):
   XX=            -30.3543   YY=            -57.0468   ZZ=            -83.8048
   XY=              0.3029   XZ=             -0.1009   YZ=              0.0808

 Normal termination of Gaussian 16 at Tue Jul 26 19:37:50 2022.
