 Gaussian 16, Revision C.01,
 Gaussian 16:  ES64L-G16RevC.01  3-Jul-2019

 ---------------------------------------------------------------
 #n M062X/6-311++G(d,p) TD(NStates=1) EmpiricalDispersion=GD3 SP
 ---------------------------------------------------------------

 ----
 SP_4
 ----
 Symbolic Z-matrix:
 Charge =  1 Multiplicity = 1

                         Standard orientation:
 ---------------------------------------------------------------------
 Center     Atomic      Atomic             Coordinates (Angstroms)
 Number     Number       Type             X           Y           Z
 ---------------------------------------------------------------------
      1          6           0        2.491390   -1.247821   -0.030327
      2          6           0        3.700548   -0.580462   -0.066526
      3          6           0        3.684437    0.725267   -0.031059
      4          6           0        2.464524    1.276115    0.008340
      5          6           0       -2.462142    1.376804   -0.015058
      6          6           0       -3.684123    0.772363   -0.098598
      7          6           0       -3.702770   -0.621498   -0.070004
      8          6           0       -2.493938   -1.347241    0.010247
      9          6           0       -0.000835   -1.422704    0.057639
     10          6           0        0.001734    1.311886    0.064601
     11          6           0        1.261473   -0.703333   -0.002864
     12          6           0        1.238571    0.684362    0.048870
     13          6           0       -1.261943   -0.725239    0.105749
     14          6           0       -1.236395    0.702656    0.061185
     15          1           0        2.485791   -2.311013   -0.032996
     16          1           0        4.635000   -1.100917   -0.115510
     17          1           0        4.609528    1.231250   -0.129346
     18          1           0        2.469826    2.342607    0.011020
     19          1           0        0.002798    2.408972    0.071395
     20          1           0       -2.465327    2.563304   -0.012002
     21          1           0       -4.608815    1.319760   -0.069626
     22          1           0       -4.638826   -1.180255   -0.095766
     23          1           0       -2.490458   -2.538440    0.007176
     24          1           0        0.005689   -1.973297    0.915811
     25          1           0       -0.008390   -1.968907   -0.803326
 ---------------------------------------------------------------------

 SCF Done:  E(RM062X) =  -539.697671018     A.U. after   15 cycles

 Excitation energies and oscillator strengths:

 Excited State   1:      Singlet-A      3.1061 eV  399.16 nm  f=0.0352  <S**2>=0.000
      46 -> 48         0.16234
      47 -> 48         0.68469
 This state for optimization and/or second-order correction.
 Total Energy, E(TD-HF/TD-DFT) =  -539.583523049
 Copying the excited state density for this state as the 1-particle RhoCI density.

 The electronic state is 1-A.
 Alpha  occ. eigenvalues --  -10.76597 -10.73306 -10.72481 -10.72350 -10.72289
 Alpha  occ. eigenvalues --  -10.71424 -10.71158 -10.71063 -10.70021 -10.69989
 Alpha  occ. eigenvalues --  -10.69688 -10.68975 -10.68262 -10.67801  -1.18174
 Alpha  occ. eigenvalues --   -1.14176  -1.08748  -1.06995  -1.02394  -1.01172
 Alpha  occ. eigenvalues --   -0.96508  -0.92698  -0.86961  -0.86063  -0.83605
 Alpha  occ. eigenvalues --   -0.79378  -0.77502  -0.74110  -0.71977  -0.71571
 Alpha  occ. eigenvalues --   -0.69368  -0.68382  -0.66796  -0.66191  -0.62951
 Alpha  occ. eigenvalues --   -0.62159  -0.62015  -0.61563  -0.60585  -0.59872
 Alpha  occ. eigenvalues --   -0.56914  -0.55287  -0.53273  -0.52538  -0.47823
 Alpha  occ. eigenvalues --   -0.46278  -0.45394
 Alpha virt. eigenvalues --   -0.25856  -0.14443  -0.13585  -0.11847  -0.11181
 Alpha virt. eigenvalues --   -0.09914  -0.09400  -0.08226  -0.07988  -0.07463
 Alpha virt. eigenvalues --   -0.07203  -0.06817  -0.05666  -0.05506  -0.05179

 Mulliken charges:
               1
     1  C   -0.043052
     2  C   -0.410004
     3  C   -0.402419
     4  C    0.062114
     5  C    0.195907
     6  C   -0.436529
     7  C   -0.450350
     8  C    0.076697
     9  C   -0.266819
    10  C    0.107316
    11  C   -0.672994
    12  C    0.673430
    13  C   -0.651992
    14  C    0.659440
    15  H    0.219448
    16  H    0.250634
    17  H    0.226250
    18  H    0.210059
    19  H    0.181299
    20  H    0.261584
    21  H    0.228320
    22  H    0.262038
    23  H    0.268554
    24  H    0.229056
    25  H    0.222010
 Sum of Mulliken charges =   1.00000

 Dipole moment (field-independent basis, Debye):
    X=             -0.4787    Y=              0.3200    Z=             -0.0678  Tot=              0.5798
 Quadrupole moment (field-independent basis, Debye-Ang):
   XX=            -28.0249   YY=            -59.7995   ZZ=            -82.8778
   XY=              0.2806   XZ=             -0.4420   YZ=              0.0616

 Normal termination of Gaussian 16 at Tue Jul 26 19:58:18 2022.
