 Gaussian 16, Revision C.01,
 Gaussian 16:  ES64L-G16RevC.01  3-Jul-2019

 ---------------------------------------------------------------
 #n M062X/6-311++G(d,p) TD(NStates=1) EmpiricalDispersion=GD3 SP
 ---------------------------------------------------------------

 ----
 SP_4
 ----
 Symbolic Z-matrix:
 Charge =  1 Multiplicity = 1

                         Standard orientation:
 ---------------------------------------------------------------------
 Center     Atomic      Atomic             Coordinates (Angstroms)
 Number     Number       Type             X           Y           Z
 ---------------------------------------------------------------------
      1          6           0        0.135279    2.868096    0.000000
      2          6           0       -0.991851    3.605441    0.000000
      3          6           0       -2.240163    3.003598    0.000000
      4          6           0       -2.350708    1.613818    0.000000
      5          6           0       -0.194920   -2.815821    0.000000
      6          6           0        0.958863   -3.633392    0.000000
      7          6           0        2.222464   -3.063358    0.000000
      8          6           0        2.287785   -1.628581    0.000000
      9          6           0        1.323022    0.602337    0.000000
     10          6           0       -1.261136   -0.675274    0.000000
     11          6           0        0.000000    1.424382    0.000000
     12          6           0       -1.146209    0.863918    0.000000
     13          6           0        1.201640   -0.798588    0.000000
     14          6           0       -0.203811   -1.429106    0.000000
     15          1           0        1.177534    3.190897    0.000000
     16          1           0       -0.835577    4.673849    0.000000
     17          1           0       -3.192153    3.519507    0.000000
     18          1           0       -3.381856    1.269516    0.000000
     19          1           0       -2.289219   -1.031854    0.000000
     20          1           0       -1.229471   -3.171510    0.000000
     21          1           0        0.945666   -4.719743    0.000000
     22          1           0        3.073699   -3.736256    0.000000
     23          1           0        3.333278   -1.294051    0.000000
     24          1           0        1.978283    0.837411    0.859585
     25          1           0        1.978283    0.837411   -0.859585
 ---------------------------------------------------------------------

 SCF Done:  E(RM062X) =  -539.692977366     A.U. after   15 cycles

 Excitation energies and oscillator strengths:

 Excited State   1:      Singlet-A'     2.7129 eV  457.02 nm  f=0.0249  <S**2>=0.000
      45 -> 48        -0.11906
      47 -> 48         0.69326
 This state for optimization and/or second-order correction.
 Total Energy, E(TD-HF/TD-DFT) =  -539.593279866
 Copying the excited state density for this state as the 1-particle RhoCI density.

 The electronic state is 1-A'.
 Alpha  occ. eigenvalues --  -10.76806 -10.74813 -10.73860 -10.73793 -10.72928
 Alpha  occ. eigenvalues --  -10.71325 -10.71208 -10.71169 -10.70979 -10.70948
 Alpha  occ. eigenvalues --  -10.69367 -10.68727 -10.68434 -10.68131  -1.16783
 Alpha  occ. eigenvalues --   -1.12588  -1.07697  -1.06727  -1.01063  -0.99796
 Alpha  occ. eigenvalues --   -0.96065  -0.91819  -0.85996  -0.85500  -0.83249
 Alpha  occ. eigenvalues --   -0.78586  -0.76124  -0.74304  -0.71405  -0.69284
 Alpha  occ. eigenvalues --   -0.68375  -0.68334  -0.66631  -0.65396  -0.63439
 Alpha  occ. eigenvalues --   -0.62097  -0.61727  -0.60562  -0.60077  -0.59648
 Alpha  occ. eigenvalues --   -0.56368  -0.54662  -0.52954  -0.52476  -0.46924
 Alpha  occ. eigenvalues --   -0.46379  -0.43918
 Alpha virt. eigenvalues --   -0.26381  -0.14926  -0.13420  -0.12344  -0.11264
 Alpha virt. eigenvalues --   -0.10190  -0.09395  -0.08033  -0.07712  -0.07474
 Alpha virt. eigenvalues --   -0.07237  -0.06905  -0.05647  -0.05596  -0.05509

 Mulliken charges:
               1
     1  C    0.013426
     2  C   -0.486023
     3  C   -0.359319
     4  C   -0.012147
     5  C    0.161412
     6  C   -0.380309
     7  C   -0.219791
     8  C    0.076740
     9  C   -0.551264
    10  C   -0.195081
    11  C    0.175287
    12  C    0.521862
    13  C   -0.646243
    14  C    0.255343
    15  H    0.230388
    16  H    0.249059
    17  H    0.232850
    18  H    0.240240
    19  H    0.198576
    20  H    0.214657
    21  H    0.266735
    22  H    0.266470
    23  H    0.252091
    24  H    0.247519
    25  H    0.247519
 Sum of Mulliken charges =   1.00000

 Dipole moment (field-independent basis, Debye):
    X=              1.0799    Y=             -2.6274    Z=              0.0000  Tot=              2.8407
 Quadrupole moment (field-independent basis, Debye-Ang):
   XX=            -50.0095   YY=            -37.1240   ZZ=            -84.0163
   XY=            -11.4470   XZ=              0.0000   YZ=              0.0000

 Normal termination of Gaussian 16 at Wed Jul 27 11:58:21 2022.
