 Gaussian 16, Revision C.01,
 Gaussian 16:  ES64L-G16RevC.01  3-Jul-2019

 ---------------------------------------------------------------
 #n M062X/6-311++G(d,p) TD(NStates=1) EmpiricalDispersion=GD3 SP
 ---------------------------------------------------------------

 -----
 SP_-2
 -----
 Symbolic Z-matrix:
 Charge =  1 Multiplicity = 1

                         Standard orientation:
 ---------------------------------------------------------------------
 Center     Atomic      Atomic             Coordinates (Angstroms)
 Number     Number       Type             X           Y           Z
 ---------------------------------------------------------------------
      1          6           0       -2.332849   -1.591444    0.000000
      2          6           0       -2.283187   -3.004172    0.000000
      3          6           0       -1.036196   -3.609287    0.000000
      4          6           0        0.135417   -2.826513    0.000000
      5          6           0        2.378452    1.559544    0.000000
      6          6           0        2.306021    2.956757    0.000000
      7          6           0        1.075023    3.593334    0.000000
      8          6           0       -0.077343    2.854456    0.000000
      9          6           0       -1.302445    0.645094    0.000000
     10          6           0        1.259922   -0.675387    0.000000
     11          6           0       -1.197276   -0.794955    0.000000
     12          6           0        0.131350   -1.433785    0.000000
     13          6           0        0.000000    1.427940    0.000000
     14          6           0        1.188676    0.805095    0.000000
     15          1           0       -3.333519   -1.165129    0.000000
     16          1           0       -3.168635   -3.625650    0.000000
     17          1           0       -1.002403   -4.691489    0.000000
     18          1           0        1.130115   -3.263041    0.000000
     19          1           0        2.251728   -1.110004    0.000000
     20          1           0        3.373566    1.132662    0.000000
     21          1           0        3.246246    3.489988    0.000000
     22          1           0        0.980128    4.668280    0.000000
     23          1           0       -1.078601    3.270786    0.000000
     24          1           0       -1.936005    0.926769    0.859585
     25          1           0       -1.936005    0.926769   -0.859585
 ---------------------------------------------------------------------

 SCF Done:  E(RM062X) =  -539.743758720     A.U. after   15 cycles

 Excitation energies and oscillator strengths:

 Excited State   1:      Singlet-A'     2.7888 eV  444.58 nm  f=0.0284  <S**2>=0.000
      47 -> 48         0.69994
 This state for optimization and/or second-order correction.
 Total Energy, E(TD-HF/TD-DFT) =  -539.641272737
 Copying the excited state density for this state as the 1-particle RhoCI density.

 The electronic state is 1-A'.
 Alpha  occ. eigenvalues --  -10.77447 -10.74147 -10.72820 -10.72597 -10.72423
 Alpha  occ. eigenvalues --  -10.72171 -10.71845 -10.70973 -10.70629 -10.70489
 Alpha  occ. eigenvalues --  -10.70259 -10.69648 -10.69302 -10.68820  -1.16535
 Alpha  occ. eigenvalues --   -1.12491  -1.07119  -1.06058  -1.01165  -1.00112
 Alpha  occ. eigenvalues --   -0.95860  -0.91268  -0.86302  -0.85800  -0.83660
 Alpha  occ. eigenvalues --   -0.78450  -0.76050  -0.74387  -0.70424  -0.69087
 Alpha  occ. eigenvalues --   -0.68420  -0.68172  -0.67616  -0.65127  -0.63852
 Alpha  occ. eigenvalues --   -0.62784  -0.61768  -0.60185  -0.59628  -0.59626
 Alpha  occ. eigenvalues --   -0.56616  -0.55232  -0.54036  -0.52578  -0.46729
 Alpha  occ. eigenvalues --   -0.46133  -0.44317
 Alpha virt. eigenvalues --   -0.26170  -0.14768  -0.13892  -0.12659  -0.11202
 Alpha virt. eigenvalues --   -0.10112  -0.09277  -0.07995  -0.07878  -0.07470
 Alpha virt. eigenvalues --   -0.07217  -0.07105  -0.05643  -0.05586  -0.05381

 Mulliken charges:
               1
     1  C    0.123282
     2  C   -0.338908
     3  C   -0.411428
     4  C    0.121283
     5  C   -0.221953
     6  C   -0.442941
     7  C   -0.434531
     8  C    0.039817
     9  C   -0.433497
    10  C    0.009398
    11  C   -0.663814
    12  C    0.582507
    13  C   -0.553563
    14  C    0.999115
    15  H    0.245823
    16  H    0.260539
    17  H    0.257950
    18  H    0.219082
    19  H    0.191569
    20  H    0.225779
    21  H    0.239797
    22  H    0.252057
    23  H    0.234272
    24  H    0.249182
    25  H    0.249182
 Sum of Mulliken charges =   1.00000

 Dipole moment (field-independent basis, Debye):
    X=             -0.5102    Y=             -1.4066    Z=             -0.0000  Tot=              1.4963
 Quadrupole moment (field-independent basis, Debye-Ang):
   XX=            -50.2599   YY=            -37.0556   ZZ=            -84.1092
   XY=             10.8712   XZ=             -0.0000   YZ=              0.0000

 Normal termination of Gaussian 16 at Wed Jul 27 11:39:15 2022.
