 Gaussian 16, Revision C.01,
 Gaussian 16:  ES64L-G16RevC.01  3-Jul-2019

 ---------------------------------------------------------------
 #n M062X/6-311++G(d,p) TD(NStates=1) EmpiricalDispersion=GD3 SP
 ---------------------------------------------------------------

 ----
 SP_1
 ----
 Symbolic Z-matrix:
 Charge =  1 Multiplicity = 1

                         Standard orientation:
 ---------------------------------------------------------------------
 Center     Atomic      Atomic             Coordinates (Angstroms)
 Number     Number       Type             X           Y           Z
 ---------------------------------------------------------------------
      1          6           0        2.486109   -1.388593    0.000000
      2          6           0        3.688412   -0.711207    0.000000
      3          6           0        3.689860    0.674678    0.000000
      4          6           0        2.480806    1.383598    0.000000
      5          6           0       -2.445279    1.431258    0.000000
      6          6           0       -3.677446    0.752931    0.000000
      7          6           0       -3.714187   -0.632570    0.000000
      8          6           0       -2.498884   -1.332291    0.000000
      9          6           0       -0.023399   -1.453200    0.000000
     10          6           0        0.000000    1.429274    0.000000
     11          6           0        1.260200   -0.675832    0.000000
     12          6           0        1.254593    0.699180    0.000000
     13          6           0       -1.264087   -0.678336    0.000000
     14          6           0       -1.219810    0.762136    0.000000
     15          1           0        2.430739   -2.470270    0.000000
     16          1           0        4.607549   -1.276953    0.000000
     17          1           0        4.609498    1.242214    0.000000
     18          1           0        2.529978    2.464647    0.000000
     19          1           0        0.042774    2.509949    0.000000
     20          1           0       -2.404873    2.514403    0.000000
     21          1           0       -4.608915    1.302629    0.000000
     22          1           0       -4.665080   -1.145942    0.000000
     23          1           0       -2.545108   -2.416068    0.000000
     24          1           0       -0.048940   -2.145381    0.859585
     25          1           0       -0.048940   -2.145381   -0.859585
 ---------------------------------------------------------------------

 SCF Done:  E(RM062X) =  -539.756140712     A.U. after   15 cycles

 Excitation energies and oscillator strengths:

 Excited State   1:      Singlet-A'     2.8138 eV  440.63 nm  f=0.0287  <S**2>=0.000
      47 -> 48         0.70301
 This state for optimization and/or second-order correction.
 Total Energy, E(TD-HF/TD-DFT) =  -539.652736603
 Copying the excited state density for this state as the 1-particle RhoCI density.

 The electronic state is 1-A'.
 Alpha  occ. eigenvalues --  -10.77611 -10.73720 -10.72720 -10.72656 -10.72163
 Alpha  occ. eigenvalues --  -10.71976 -10.71713 -10.70978 -10.70792 -10.70311
 Alpha  occ. eigenvalues --  -10.70307 -10.70058 -10.69634 -10.69214  -1.16466
 Alpha  occ. eigenvalues --   -1.12471  -1.06987  -1.05819  -1.01268  -1.00169
 Alpha  occ. eigenvalues --   -0.95802  -0.91110  -0.86388  -0.85876  -0.83776
 Alpha  occ. eigenvalues --   -0.78413  -0.76033  -0.74410  -0.69908  -0.69101
 Alpha  occ. eigenvalues --   -0.68474  -0.68120  -0.68032  -0.64897  -0.64114
 Alpha  occ. eigenvalues --   -0.62995  -0.61838  -0.60056  -0.59659  -0.59259
 Alpha  occ. eigenvalues --   -0.56800  -0.55269  -0.54586  -0.52474  -0.46654
 Alpha  occ. eigenvalues --   -0.46075  -0.44452
 Alpha virt. eigenvalues --   -0.26109  -0.14699  -0.14042  -0.12744  -0.11185
 Alpha virt. eigenvalues --   -0.10093  -0.09242  -0.07986  -0.07945  -0.07474
 Alpha virt. eigenvalues --   -0.07207  -0.07137  -0.05643  -0.05582  -0.05345

 Mulliken charges:
               1
     1  C    0.076810
     2  C   -0.432096
     3  C   -0.447223
     4  C   -0.085560
     5  C    0.083321
     6  C   -0.428018
     7  C   -0.375801
     8  C    0.109822
     9  C   -0.356299
    10  C    0.077015
    11  C   -0.629723
    12  C    0.798543
    13  C   -0.641091
    14  C    0.629471
    15  H    0.234774
    16  H    0.254098
    17  H    0.244282
    18  H    0.223698
    19  H    0.190594
    20  H    0.220502
    21  H    0.253471
    22  H    0.258470
    23  H    0.241182
    24  H    0.249879
    25  H    0.249879
 Sum of Mulliken charges =   1.00000

 Dipole moment (field-independent basis, Debye):
    X=             -0.7491    Y=              0.1945    Z=             -0.0000  Tot=              0.7740
 Quadrupole moment (field-independent basis, Debye-Ang):
   XX=            -31.0741   YY=            -56.2887   ZZ=            -84.1337
   XY=              0.2635   XZ=              0.0000   YZ=              0.0000

 Normal termination of Gaussian 16 at Wed Jul 27 11:47:56 2022.
