 Gaussian 16, Revision C.01,
 Gaussian 16:  ES64L-G16RevC.01  3-Jul-2019

 ---------------------------------------------------------------
 #n M062X/6-311++G(d,p) TD(NStates=1) EmpiricalDispersion=GD3 SP
 ---------------------------------------------------------------

 -----
 SP_25
 -----
 Symbolic Z-matrix:
 Charge =  1 Multiplicity = 1

                         Standard orientation:
 ---------------------------------------------------------------------
 Center     Atomic      Atomic             Coordinates (Angstroms)
 Number     Number       Type             X           Y           Z
 ---------------------------------------------------------------------
      1          6           0       -2.357489   -1.543933    0.000000
      2          6           0       -2.300236   -2.937597    0.000000
      3          6           0       -1.069269   -3.592576    0.000000
      4          6           0        0.093600   -2.867352    0.000000
      5          6           0        2.368353    1.502156    0.000000
      6          6           0        2.336036    2.939423    0.000000
      7          6           0        1.137713    3.616074    0.000000
      8          6           0       -0.027246    2.857880    0.000000
      9          6           0       -1.273078    0.689787    0.000000
     10          6           0        1.242917   -0.706334    0.000000
     11          6           0       -1.203502   -0.798944    0.000000
     12          6           0        0.060992   -1.453201    0.000000
     13          6           0        0.000000    1.419510    0.000000
     14          6           0        1.214769    0.737485    0.000000
     15          1           0       -3.320324   -1.047941    0.000000
     16          1           0       -3.216723   -3.510215    0.000000
     17          1           0       -1.034627   -4.673006    0.000000
     18          1           0        1.054715   -3.364736    0.000000
     19          1           0        2.200249   -1.208851    0.000000
     20          1           0        3.334817    1.013015    0.000000
     21          1           0        3.276027    3.474731    0.000000
     22          1           0        1.099458    4.694392    0.000000
     23          1           0       -0.995183    3.345349    0.000000
     24          1           0       -1.869880    1.051498    0.858210
     25          1           0       -1.869880    1.051498   -0.858210
 ---------------------------------------------------------------------

 SCF Done:  E(RM062X) =  -539.754778867     A.U. after   15 cycles

 Excitation energies and oscillator strengths:

 Excited State   1:      Singlet-A'     2.6883 eV  461.21 nm  f=0.0209  <S**2>=0.000
      47 -> 48         0.70351
 This state for optimization and/or second-order correction.
 Total Energy, E(TD-HF/TD-DFT) =  -539.655986899
 Copying the excited state density for this state as the 1-particle RhoCI density.

 The electronic state is 1-A'.
 Alpha  occ. eigenvalues --  -10.77583 -10.73697 -10.72797 -10.72697 -10.71984
 Alpha  occ. eigenvalues --  -10.71940 -10.71820 -10.70966 -10.70864 -10.70198
 Alpha  occ. eigenvalues --  -10.70145 -10.69905 -10.69746 -10.69333  -1.16559
 Alpha  occ. eigenvalues --   -1.12495  -1.06938  -1.05889  -1.01292  -1.00417
 Alpha  occ. eigenvalues --   -0.95598  -0.91048  -0.86442  -0.85906  -0.83794
 Alpha  occ. eigenvalues --   -0.78351  -0.76153  -0.74380  -0.69739  -0.69316
 Alpha  occ. eigenvalues --   -0.68351  -0.68098  -0.68083  -0.65204  -0.64252
 Alpha  occ. eigenvalues --   -0.62823  -0.61651  -0.60384  -0.59299  -0.59147
 Alpha  occ. eigenvalues --   -0.56951  -0.55261  -0.54608  -0.52435  -0.47215
 Alpha  occ. eigenvalues --   -0.46113  -0.43886
 Alpha virt. eigenvalues --   -0.26089  -0.14670  -0.14080  -0.12760  -0.11191
 Alpha virt. eigenvalues --   -0.10097  -0.09254  -0.07964  -0.07927  -0.07484
 Alpha virt. eigenvalues --   -0.07215  -0.07140  -0.05644  -0.05577  -0.05352

 Mulliken charges:
               1
     1  C    0.073532
     2  C   -0.401762
     3  C   -0.434124
     4  C    0.038521
     5  C    0.003891
     6  C   -0.443492
     7  C   -0.413408
     8  C    0.115966
     9  C   -0.326849
    10  C    0.093621
    11  C   -0.655792
    12  C    0.698690
    13  C   -0.614906
    14  C    0.645654
    15  H    0.239401
    16  H    0.260319
    17  H    0.252103
    18  H    0.225376
    19  H    0.189486
    20  H    0.218806
    21  H    0.245839
    22  H    0.252466
    23  H    0.234947
    24  H    0.250857
    25  H    0.250857
 Sum of Mulliken charges =   1.00000

 Dipole moment (field-independent basis, Debye):
    X=             -0.3068    Y=             -0.9420    Z=              0.0000  Tot=              0.9907
 Quadrupole moment (field-independent basis, Debye-Ang):
   XX=            -51.1507   YY=            -36.1727   ZZ=            -84.1319
   XY=             10.1538   XZ=             -0.0000   YZ=              0.0000

 Normal termination of Gaussian 16 at Tue Aug  2 12:13:58 2022.
