 Gaussian 16, Revision C.01,
 Gaussian 16:  ES64L-G16RevC.01  3-Jul-2019

 ---------------------------------------------------------------
 #n M062X/6-311++G(d,p) TD(NStates=1) EmpiricalDispersion=GD3 SP
 ---------------------------------------------------------------

 -----
 SP_75
 -----
 Symbolic Z-matrix:
 Charge =  1 Multiplicity = 1

                         Standard orientation:
 ---------------------------------------------------------------------
 Center     Atomic      Atomic             Coordinates (Angstroms)
 Number     Number       Type             X           Y           Z
 ---------------------------------------------------------------------
      1          6           0       -2.369187   -1.551901    0.000000
      2          6           0       -2.324250   -2.942667    0.000000
      3          6           0       -1.093180   -3.588836    0.000000
      4          6           0        0.083616   -2.849651    0.000000
      5          6           0        2.389417    1.503910    0.000000
      6          6           0        2.357263    2.922031    0.000000
      7          6           0        1.150126    3.596031    0.000000
      8          6           0       -0.021518    2.849257    0.000000
      9          6           0       -1.282400    0.690926    0.000000
     10          6           0        1.252516   -0.688881    0.000000
     11          6           0       -1.197797   -0.795136    0.000000
     12          6           0        0.059726   -1.442703    0.000000
     13          6           0       -0.000000    1.426953    0.000000
     14          6           0        1.222288    0.741518    0.000000
     15          1           0       -3.326192   -1.044771    0.000000
     16          1           0       -3.241103   -3.513692    0.000000
     17          1           0       -1.046610   -4.668511    0.000000
     18          1           0        1.039643   -3.356979    0.000000
     19          1           0        2.207069   -1.196223    0.000000
     20          1           0        3.349627    1.003631    0.000000
     21          1           0        3.291411    3.466048    0.000000
     22          1           0        1.115180    4.674884    0.000000
     23          1           0       -0.982824    3.348800    0.000000
     24          1           0       -1.882957    1.030855    0.860410
     25          1           0       -1.882957    1.030855   -0.860410
 ---------------------------------------------------------------------

 SCF Done:  E(RM062X) =  -539.759268722     A.U. after   15 cycles

 Excitation energies and oscillator strengths:

 Excited State   1:      Singlet-A'     2.7921 eV  444.06 nm  f=0.0260  <S**2>=0.000
      47 -> 48         0.70396
 This state for optimization and/or second-order correction.
 Total Energy, E(TD-HF/TD-DFT) =  -539.656662433
 Copying the excited state density for this state as the 1-particle RhoCI density.

 The electronic state is 1-A'.
 Alpha  occ. eigenvalues --  -10.77659 -10.73475 -10.73041 -10.72611 -10.72261
 Alpha  occ. eigenvalues --  -10.71572 -10.71393 -10.71161 -10.70990 -10.70621
 Alpha  occ. eigenvalues --  -10.70071 -10.69875 -10.69757 -10.69512  -1.16439
 Alpha  occ. eigenvalues --   -1.12454  -1.06944  -1.05719  -1.01309  -1.00201
 Alpha  occ. eigenvalues --   -0.95749  -0.91044  -0.86420  -0.85894  -0.83804
 Alpha  occ. eigenvalues --   -0.78386  -0.76029  -0.74407  -0.69608  -0.69254
 Alpha  occ. eigenvalues --   -0.68464  -0.68163  -0.68106  -0.64838  -0.64260
 Alpha  occ. eigenvalues --   -0.62974  -0.61821  -0.60137  -0.59562  -0.59109
 Alpha  occ. eigenvalues --   -0.56895  -0.55234  -0.54773  -0.52440  -0.46736
 Alpha  occ. eigenvalues --   -0.46078  -0.44374
 Alpha virt. eigenvalues --   -0.26098  -0.14667  -0.14095  -0.12773  -0.11179
 Alpha virt. eigenvalues --   -0.10085  -0.09235  -0.07979  -0.07967  -0.07476
 Alpha virt. eigenvalues --   -0.07202  -0.07142  -0.05644  -0.05579  -0.05334

 Mulliken charges:
               1
     1  C    0.083751
     2  C   -0.404359
     3  C   -0.437486
     4  C    0.016938
     5  C    0.003084
     6  C   -0.442051
     7  C   -0.409066
     8  C    0.100975
     9  C   -0.342791
    10  C    0.087499
    11  C   -0.643062
    12  C    0.705989
    13  C   -0.623579
    14  C    0.685133
    15  H    0.238438
    16  H    0.257942
    17  H    0.250194
    18  H    0.223426
    19  H    0.190351
    20  H    0.220676
    21  H    0.247505
    22  H    0.254546
    23  H    0.236508
    24  H    0.249720
    25  H    0.249720
 Sum of Mulliken charges =   1.00000

 Dipole moment (field-independent basis, Debye):
    X=             -0.0320    Y=             -0.4591    Z=             -0.0000  Tot=              0.4602
 Quadrupole moment (field-independent basis, Debye-Ang):
   XX=            -50.8633   YY=            -36.4891   ZZ=            -84.1408
   XY=             10.3442   XZ=              0.0000   YZ=             -0.0000

 Normal termination of Gaussian 16 at Tue Aug  2 12:49:05 2022.
