 Gaussian 16, Revision C.01,
 Gaussian 16:  ES64L-G16RevC.01  3-Jul-2019

 ---------------------------------------------------------------
 #n M062X/6-311++G(d,p) TD(NStates=1) EmpiricalDispersion=GD3 SP
 ---------------------------------------------------------------

 ------
 SP_-75
 ------
 Symbolic Z-matrix:
 Charge =  1 Multiplicity = 1

                         Standard orientation:
 ---------------------------------------------------------------------
 Center     Atomic      Atomic             Coordinates (Angstroms)
 Number     Number       Type             X           Y           Z
 ---------------------------------------------------------------------
      1          6           0        2.460466    1.464435    0.000000
      2          6           0        2.506494    2.851639    0.000000
      3          6           0        1.305019    3.522481    0.000000
      4          6           0        0.056620    2.799718    0.000000
      5          6           0       -2.504963   -1.408506    0.000000
      6          6           0       -2.522128   -2.774150    0.000000
      7          6           0       -1.320600   -3.486568    0.000000
      8          6           0       -0.099054   -2.815883    0.000000
      9          6           0        1.257495   -0.733259    0.000000
     10          6           0       -1.251788    0.691625    0.000000
     11          6           0        1.211966    0.736115    0.000000
     12          6           0        0.000000    1.417857    0.000000
     13          6           0       -0.058314   -1.445448    0.000000
     14          6           0       -1.275117   -0.702864    0.000000
     15          1           0        3.378078    0.887815    0.000000
     16          1           0        3.447787    3.378751    0.000000
     17          1           0        1.271177    4.603624    0.000000
     18          1           0       -0.861923    3.373818    0.000000
     19          1           0       -2.177370    1.250133    0.000000
     20          1           0       -3.426957   -0.842116    0.000000
     21          1           0       -3.462341   -3.307161    0.000000
     22          1           0       -1.335688   -4.567200    0.000000
     23          1           0        0.822597   -3.384586    0.000000
     24          1           0        1.874036   -1.048114    0.860135
     25          1           0        1.874036   -1.048114   -0.860135
 ---------------------------------------------------------------------

 SCF Done:  E(RM062X) =  -539.753301590     A.U. after   15 cycles

 Excitation energies and oscillator strengths:

 Excited State   1:      Singlet-A'     2.6544 eV  467.10 nm  f=0.0193  <S**2>=0.000
      47 -> 48         0.70350
 This state for optimization and/or second-order correction.
 Total Energy, E(TD-HF/TD-DFT) =  -539.655755929
 Copying the excited state density for this state as the 1-particle RhoCI density.

 The electronic state is 1-A'.
 Alpha  occ. eigenvalues --  -10.77577 -10.73815 -10.72859 -10.72666 -10.72070
 Alpha  occ. eigenvalues --  -10.71931 -10.71883 -10.70991 -10.70796 -10.70234
 Alpha  occ. eigenvalues --  -10.70021 -10.69955 -10.69713 -10.69305  -1.16541
 Alpha  occ. eigenvalues --   -1.12466  -1.06937  -1.05850  -1.01283  -1.00422
 Alpha  occ. eigenvalues --   -0.95552  -0.91023  -0.86443  -0.85888  -0.83771
 Alpha  occ. eigenvalues --   -0.78327  -0.76140  -0.74362  -0.69801  -0.69324
 Alpha  occ. eigenvalues --   -0.68294  -0.68093  -0.68053  -0.65288  -0.64230
 Alpha  occ. eigenvalues --   -0.62726  -0.61561  -0.60483  -0.59237  -0.59169
 Alpha  occ. eigenvalues --   -0.56942  -0.55266  -0.54524  -0.52441  -0.47339
 Alpha  occ. eigenvalues --   -0.46126  -0.43759
 Alpha virt. eigenvalues --   -0.26110  -0.14666  -0.14076  -0.12760  -0.11191
 Alpha virt. eigenvalues --   -0.10093  -0.09261  -0.07958  -0.07925  -0.07485
 Alpha virt. eigenvalues --   -0.07211  -0.07134  -0.05647  -0.05573  -0.05354

 Mulliken charges:
               1
     1  C    0.117107
     2  C   -0.413662
     3  C   -0.444392
     4  C   -0.008139
     5  C    0.028018
     6  C   -0.432264
     7  C   -0.400871
     8  C    0.071553
     9  C   -0.346874
    10  C    0.080809
    11  C   -0.599281
    12  C    0.664732
    13  C   -0.654659
    14  C    0.718489
    15  H    0.235059
    16  H    0.251762
    17  H    0.245304
    18  H    0.218555
    19  H    0.189498
    20  H    0.225774
    21  H    0.252436
    22  H    0.260752
    23  H    0.240110
    24  H    0.250091
    25  H    0.250091
 Sum of Mulliken charges =   1.00000

 Dipole moment (field-independent basis, Debye):
    X=             -0.7196    Y=             -0.8687    Z=              0.0000  Tot=              1.1280
 Quadrupole moment (field-independent basis, Debye-Ang):
   XX=            -49.1337   YY=            -38.1371   ZZ=            -84.1309
   XY=             11.4056   XZ=              0.0000   YZ=             -0.0000

 Normal termination of Gaussian 16 at Tue Aug  2 11:29:15 2022.
