 Gaussian 16, Revision C.01,
 Gaussian 16:  ES64L-G16RevC.01  3-Jul-2019

 ---------------------------------------------------------------
 #n M062X/6-311++G(d,p) TD(NStates=1) EmpiricalDispersion=GD3 SP
 ---------------------------------------------------------------

 ------
 SP_-50
 ------
 Symbolic Z-matrix:
 Charge =  1 Multiplicity = 1

                         Standard orientation:
 ---------------------------------------------------------------------
 Center     Atomic      Atomic             Coordinates (Angstroms)
 Number     Number       Type             X           Y           Z
 ---------------------------------------------------------------------
      1          6           0       -2.371174   -1.548394    0.000000
      2          6           0       -2.329995   -2.941055    0.000000
      3          6           0       -1.100944   -3.585079    0.000000
      4          6           0        0.080673   -2.844716    0.000000
      5          6           0        2.394142    1.504254    0.000000
      6          6           0        2.359478    2.917416    0.000000
      7          6           0        1.151284    3.589122    0.000000
      8          6           0       -0.023890    2.843277    0.000000
      9          6           0       -1.274089    0.685457    0.000000
     10          6           0        1.254430   -0.684315    0.000000
     11          6           0       -1.196079   -0.793837    0.000000
     12          6           0        0.059578   -1.441435    0.000000
     13          6           0        0.000000    1.428394    0.000000
     14          6           0        1.225458    0.743057    0.000000
     15          1           0       -3.326423   -1.037654    0.000000
     16          1           0       -3.247673   -3.510642    0.000000
     17          1           0       -1.052430   -4.664986    0.000000
     18          1           0        1.035001   -3.355599    0.000000
     19          1           0        2.208506   -1.193030    0.000000
     20          1           0        3.353398    1.002062    0.000000
     21          1           0        3.291982    3.464631    0.000000
     22          1           0        1.115980    4.668142    0.000000
     23          1           0       -0.984016    3.345208    0.000000
     24          1           0       -1.883777    1.024497    0.857935
     25          1           0       -1.883777    1.024497   -0.857935
 ---------------------------------------------------------------------

 SCF Done:  E(RM062X) =  -539.759658060     A.U. after   15 cycles

 Excitation energies and oscillator strengths:

 Excited State   1:      Singlet-A'     2.8083 eV  441.49 nm  f=0.0278  <S**2>=0.000
      47 -> 48         0.70410
 This state for optimization and/or second-order correction.
 Total Energy, E(TD-HF/TD-DFT) =  -539.656454840
 Copying the excited state density for this state as the 1-particle RhoCI density.

 The electronic state is 1-A'.
 Alpha  occ. eigenvalues --  -10.77646 -10.73344 -10.73057 -10.72536 -10.72303
 Alpha  occ. eigenvalues --  -10.71501 -10.71271 -10.71225 -10.70959 -10.70756
 Alpha  occ. eigenvalues --  -10.70036 -10.69906 -10.69701 -10.69537  -1.16488
 Alpha  occ. eigenvalues --   -1.12492  -1.06944  -1.05802  -1.01312  -1.00247
 Alpha  occ. eigenvalues --   -0.95761  -0.91070  -0.86425  -0.85915  -0.83826
 Alpha  occ. eigenvalues --   -0.78402  -0.76072  -0.74419  -0.69562  -0.69261
 Alpha  occ. eigenvalues --   -0.68502  -0.68198  -0.68090  -0.64798  -0.64292
 Alpha  occ. eigenvalues --   -0.63090  -0.61852  -0.60029  -0.59629  -0.59089
 Alpha  occ. eigenvalues --   -0.56920  -0.55213  -0.54842  -0.52433  -0.46703
 Alpha  occ. eigenvalues --   -0.46066  -0.44418
 Alpha virt. eigenvalues --   -0.26074  -0.14673  -0.14095  -0.12769  -0.11181
 Alpha virt. eigenvalues --   -0.10091  -0.09232  -0.07981  -0.07959  -0.07477
 Alpha virt. eigenvalues --   -0.07209  -0.07147  -0.05641  -0.05583  -0.05337

 Mulliken charges:
               1
     1  C    0.086920
     2  C   -0.405336
     3  C   -0.438706
     4  C    0.029534
     5  C    0.019333
     6  C   -0.441267
     7  C   -0.408656
     8  C    0.099445
     9  C   -0.318535
    10  C    0.101146
    11  C   -0.645615
    12  C    0.676288
    13  C   -0.635059
    14  C    0.660083
    15  H    0.237615
    16  H    0.257552
    17  H    0.249883
    18  H    0.222956
    19  H    0.190154
    20  H    0.221039
    21  H    0.248084
    22  H    0.255299
    23  H    0.236316
    24  H    0.250763
    25  H    0.250763
 Sum of Mulliken charges =   1.00000

 Dipole moment (field-independent basis, Debye):
    X=              0.0278    Y=             -0.3323    Z=              0.0000  Tot=              0.3334
 Quadrupole moment (field-independent basis, Debye-Ang):
   XX=            -50.7901   YY=            -36.6077   ZZ=            -84.1396
   XY=             10.3622   XZ=             -0.0000   YZ=              0.0000

 Normal termination of Gaussian 16 at Tue Aug  2 11:33:41 2022.
