 Gaussian 16, Revision C.01,
 Gaussian 16:  ES64L-G16RevC.01  3-Jul-2019

 ---------------------------------------------------------------
 #n M062X/6-311++G(d,p) TD(NStates=1) EmpiricalDispersion=GD3 SP
 ---------------------------------------------------------------

 -----
 SP_50
 -----
 Symbolic Z-matrix:
 Charge =  1 Multiplicity = 1

                         Standard orientation:
 ---------------------------------------------------------------------
 Center     Atomic      Atomic             Coordinates (Angstroms)
 Number     Number       Type             X           Y           Z
 ---------------------------------------------------------------------
      1          6           0       -2.354818   -1.543445    0.000000
      2          6           0       -2.294292   -2.937105    0.000000
      3          6           0       -1.062774   -3.594261    0.000000
      4          6           0        0.096262   -2.871908    0.000000
      5          6           0        2.363232    1.501734    0.000000
      6          6           0        2.331534    2.943841    0.000000
      7          6           0        1.135088    3.621604    0.000000
      8          6           0       -0.027678    2.861082    0.000000
      9          6           0       -1.273664    0.691062    0.000000
     10          6           0        1.240681   -0.710758    0.000000
     11          6           0       -1.205000   -0.800009    0.000000
     12          6           0        0.061285   -1.455457    0.000000
     13          6           0        0.000000    1.417767    0.000000
     14          6           0        1.212542    0.736330    0.000000
     15          1           0       -3.319182   -1.050477    0.000000
     16          1           0       -3.210482   -3.510411    0.000000
     17          1           0       -1.030823   -4.674783    0.000000
     18          1           0        1.058756   -3.366502    0.000000
     19          1           0        2.198648   -1.212014    0.000000
     20          1           0        3.331086    1.015154    0.000000
     21          1           0        3.273047    3.476710    0.000000
     22          1           0        1.096323    4.699779    0.000000
     23          1           0       -0.997131    3.345692    0.000000
     24          1           0       -1.867320    1.056990    0.858485
     25          1           0       -1.867320    1.056990   -0.858485
 ---------------------------------------------------------------------

 SCF Done:  E(RM062X) =  -539.753166164     A.U. after   15 cycles

 Excitation energies and oscillator strengths:

 Excited State   1:      Singlet-A'     2.6563 eV  466.76 nm  f=0.0197  <S**2>=0.000
      47 -> 48         0.70346
 This state for optimization and/or second-order correction.
 Total Energy, E(TD-HF/TD-DFT) =  -539.655550510
 Copying the excited state density for this state as the 1-particle RhoCI density.

 The electronic state is 1-A'.
 Alpha  occ. eigenvalues --  -10.77564 -10.73772 -10.72845 -10.72629 -10.72076
 Alpha  occ. eigenvalues --  -10.71918 -10.71881 -10.70971 -10.70791 -10.70231
 Alpha  occ. eigenvalues --  -10.70027 -10.69946 -10.69714 -10.69294  -1.16579
 Alpha  occ. eigenvalues --   -1.12493  -1.06936  -1.05911  -1.01285  -1.00465
 Alpha  occ. eigenvalues --   -0.95549  -0.91038  -0.86447  -0.85902  -0.83783
 Alpha  occ. eigenvalues --   -0.78333  -0.76174  -0.74368  -0.69790  -0.69331
 Alpha  occ. eigenvalues --   -0.68306  -0.68082  -0.68068  -0.65304  -0.64244
 Alpha  occ. eigenvalues --   -0.62758  -0.61582  -0.60463  -0.59231  -0.59163
 Alpha  occ. eigenvalues --   -0.56958  -0.55266  -0.54542  -0.52436  -0.47355
 Alpha  occ. eigenvalues --   -0.46122  -0.43747
 Alpha virt. eigenvalues --   -0.26095  -0.14669  -0.14075  -0.12757  -0.11193
 Alpha virt. eigenvalues --   -0.10098  -0.09261  -0.07959  -0.07917  -0.07486
 Alpha virt. eigenvalues --   -0.07217  -0.07137  -0.05645  -0.05575  -0.05357

 Mulliken charges:
               1
     1  C    0.071223
     2  C   -0.401137
     3  C   -0.432915
     4  C    0.038454
     5  C   -0.000297
     6  C   -0.443899
     7  C   -0.414359
     8  C    0.119113
     9  C   -0.331390
    10  C    0.090045
    11  C   -0.657544
    12  C    0.704848
    13  C   -0.608618
    14  C    0.646112
    15  H    0.239810
    16  H    0.260851
    17  H    0.252531
    18  H    0.225844
    19  H    0.189291
    20  H    0.218410
    21  H    0.245384
    22  H    0.251888
    23  H    0.234748
    24  H    0.250805
    25  H    0.250805
 Sum of Mulliken charges =   1.00000

 Dipole moment (field-independent basis, Debye):
    X=             -0.3734    Y=             -1.0629    Z=             -0.0000  Tot=              1.1266
 Quadrupole moment (field-independent basis, Debye-Ang):
   XX=            -51.2214   YY=            -36.0744   ZZ=            -84.1295
   XY=             10.1192   XZ=              0.0000   YZ=             -0.0000

 Normal termination of Gaussian 16 at Tue Aug  2 12:28:16 2022.
