 Gaussian 16, Revision C.01,
 Gaussian 16:  ES64L-G16RevC.01  3-Jul-2019

 ---------------------------------------------------------------
 #n M062X/6-311++G(d,p) TD(NStates=1) EmpiricalDispersion=GD3 SP
 ---------------------------------------------------------------

 -----
 SP_75
 -----
 Symbolic Z-matrix:
 Charge =  1 Multiplicity = 1

                         Standard orientation:
 ---------------------------------------------------------------------
 Center     Atomic      Atomic             Coordinates (Angstroms)
 Number     Number       Type             X           Y           Z
 ---------------------------------------------------------------------
      1          6           0       -2.357824   -1.545934    0.000000
      2          6           0       -2.300325   -2.938641    0.000000
      3          6           0       -1.068609   -3.593594    0.000000
      4          6           0        0.093775   -2.867535    0.000000
      5          6           0        2.368549    1.502187    0.000000
      6          6           0        2.337150    2.939522    0.000000
      7          6           0        1.138404    3.616767    0.000000
      8          6           0       -0.025878    2.859276    0.000000
      9          6           0       -1.276958    0.691864    0.000000
     10          6           0        1.243103   -0.706409    0.000000
     11          6           0       -1.203606   -0.799075    0.000000
     12          6           0        0.060935   -1.452708    0.000000
     13          6           0       -0.000000    1.419664    0.000000
     14          6           0        1.214302    0.737290    0.000000
     15          1           0       -3.320763   -1.050247    0.000000
     16          1           0       -3.216542   -3.511638    0.000000
     17          1           0       -1.033587   -4.673875    0.000000
     18          1           0        1.055041   -3.364526    0.000000
     19          1           0        2.200355   -1.208863    0.000000
     20          1           0        3.334791    1.012733    0.000000
     21          1           0        3.277212    3.474464    0.000000
     22          1           0        1.100579    4.695074    0.000000
     23          1           0       -0.993637    3.346971    0.000000
     24          1           0       -1.870783    1.051932    0.859310
     25          1           0       -1.870783    1.051932   -0.859310
 ---------------------------------------------------------------------

 SCF Done:  E(RM062X) =  -539.754873964     A.U. after   15 cycles

 Excitation energies and oscillator strengths:

 Excited State   1:      Singlet-A'     2.6872 eV  461.38 nm  f=0.0206  <S**2>=0.000
      47 -> 48         0.70353
 This state for optimization and/or second-order correction.
 Total Energy, E(TD-HF/TD-DFT) =  -539.656120089
 Copying the excited state density for this state as the 1-particle RhoCI density.

 The electronic state is 1-A'.
 Alpha  occ. eigenvalues --  -10.77592 -10.73726 -10.72805 -10.72721 -10.71993
 Alpha  occ. eigenvalues --  -10.71936 -10.71822 -10.70979 -10.70867 -10.70200
 Alpha  occ. eigenvalues --  -10.70141 -10.69911 -10.69746 -10.69340  -1.16534
 Alpha  occ. eigenvalues --   -1.12477  -1.06938  -1.05848  -1.01291  -1.00389
 Alpha  occ. eigenvalues --   -0.95600  -0.91037  -0.86439  -0.85897  -0.83786
 Alpha  occ. eigenvalues --   -0.78346  -0.76130  -0.74376  -0.69747  -0.69311
 Alpha  occ. eigenvalues --   -0.68343  -0.68090  -0.68088  -0.65193  -0.64242
 Alpha  occ. eigenvalues --   -0.62799  -0.61640  -0.60398  -0.59302  -0.59151
 Alpha  occ. eigenvalues --   -0.56940  -0.55262  -0.54595  -0.52438  -0.47204
 Alpha  occ. eigenvalues --   -0.46116  -0.43895
 Alpha virt. eigenvalues --   -0.26099  -0.14668  -0.14081  -0.12762  -0.11189
 Alpha virt. eigenvalues --   -0.10094  -0.09254  -0.07964  -0.07932  -0.07483
 Alpha virt. eigenvalues --   -0.07212  -0.07138  -0.05645  -0.05576  -0.05350

 Mulliken charges:
               1
     1  C    0.073811
     2  C   -0.401797
     3  C   -0.433718
     4  C    0.031419
     5  C   -0.001681
     6  C   -0.443812
     7  C   -0.413106
     8  C    0.114818
     9  C   -0.337359
    10  C    0.087726
    11  C   -0.654603
    12  C    0.709092
    13  C   -0.610002
    14  C    0.659385
    15  H    0.239615
    16  H    0.260250
    17  H    0.252041
    18  H    0.225335
    19  H    0.189618
    20  H    0.218889
    21  H    0.245785
    22  H    0.252380
    23  H    0.235168
    24  H    0.250374
    25  H    0.250374
 Sum of Mulliken charges =   1.00000

 Dipole moment (field-independent basis, Debye):
    X=             -0.3037    Y=             -0.9441    Z=             -0.0000  Tot=              0.9917
 Quadrupole moment (field-independent basis, Debye-Ang):
   XX=            -51.1507   YY=            -36.1558   ZZ=            -84.1328
   XY=             10.1661   XZ=              0.0000   YZ=             -0.0000

 Normal termination of Gaussian 16 at Tue Aug  2 12:44:45 2022.
