 Gaussian 16, Revision C.01,
 Gaussian 16:  ES64L-G16RevC.01  3-Jul-2019

 ---------------------------------------------------------------
 #n M062X/6-311++G(d,p) TD(NStates=1) EmpiricalDispersion=GD3 SP
 ---------------------------------------------------------------

 ------
 SP_-75
 ------
 Symbolic Z-matrix:
 Charge =  1 Multiplicity = 1

                         Standard orientation:
 ---------------------------------------------------------------------
 Center     Atomic      Atomic             Coordinates (Angstroms)
 Number     Number       Type             X           Y           Z
 ---------------------------------------------------------------------
      1          6           0        2.491863   -1.350853    0.000000
      2          6           0        3.698689   -0.654830    0.000000
      3          6           0        3.678616    0.731115    0.000000
      4          6           0        2.460842    1.420133    0.000000
      5          6           0       -2.465054    1.394255    0.000000
      6          6           0       -3.686910    0.693026    0.000000
      7          6           0       -3.700917   -0.690392    0.000000
      8          6           0       -2.486751   -1.372109    0.000000
      9          6           0        0.004245   -1.445662    0.000000
     10          6           0        0.000000    1.428854    0.000000
     11          6           0        1.265719   -0.673414    0.000000
     12          6           0        1.237578    0.736996    0.000000
     13          6           0       -1.257859   -0.680516    0.000000
     14          6           0       -1.238738    0.725674    0.000000
     15          1           0        2.493819   -2.434121    0.000000
     16          1           0        4.635866   -1.191502    0.000000
     17          1           0        4.604006    1.289996    0.000000
     18          1           0        2.459174    2.502681    0.000000
     19          1           0       -0.005156    2.510094    0.000000
     20          1           0       -2.476911    2.476885    0.000000
     21          1           0       -4.613382    1.250314    0.000000
     22          1           0       -4.633515   -1.234510    0.000000
     23          1           0       -2.474577   -2.455407    0.000000
     24          1           0        0.001369   -2.144049    0.857660
     25          1           0        0.001369   -2.144049   -0.857660
 ---------------------------------------------------------------------

 SCF Done:  E(RM062X) =  -539.759979785     A.U. after   15 cycles

 Excitation energies and oscillator strengths:

 Excited State   1:      Singlet-A'     2.8185 eV  439.90 nm  f=0.0288  <S**2>=0.000
      47 -> 48         0.70422
 This state for optimization and/or second-order correction.
 Total Energy, E(TD-HF/TD-DFT) =  -539.656403005
 Copying the excited state density for this state as the 1-particle RhoCI density.

 The electronic state is 1-A'.
 Alpha  occ. eigenvalues --  -10.77648 -10.73266 -10.73123 -10.72478 -10.72361
 Alpha  occ. eigenvalues --  -10.71432 -10.71294 -10.71141 -10.70956 -10.70884
 Alpha  occ. eigenvalues --  -10.70003 -10.69938 -10.69659 -10.69576  -1.16489
 Alpha  occ. eigenvalues --   -1.12495  -1.06944  -1.05806  -1.01314  -1.00242
 Alpha  occ. eigenvalues --   -0.95772  -0.91074  -0.86424  -0.85918  -0.83830
 Alpha  occ. eigenvalues --   -0.78406  -0.76072  -0.74422  -0.69545  -0.69258
 Alpha  occ. eigenvalues --   -0.68516  -0.68208  -0.68089  -0.64762  -0.64301
 Alpha  occ. eigenvalues --   -0.63124  -0.61867  -0.59973  -0.59680  -0.59083
 Alpha  occ. eigenvalues --   -0.56921  -0.55204  -0.54866  -0.52432  -0.46666
 Alpha  occ. eigenvalues --   -0.46059  -0.44460
 Alpha virt. eigenvalues --   -0.26071  -0.14674  -0.14095  -0.12770  -0.11182
 Alpha virt. eigenvalues --   -0.10092  -0.09230  -0.07983  -0.07960  -0.07477
 Alpha virt. eigenvalues --   -0.07210  -0.07149  -0.05641  -0.05584  -0.05336

 Mulliken charges:
               1
     1  C    0.090283
     2  C   -0.405944
     3  C   -0.439521
     4  C    0.028813
     5  C    0.023587
     6  C   -0.440773
     7  C   -0.407607
     8  C    0.096562
     9  C   -0.315564
    10  C    0.102868
    11  C   -0.643081
    12  C    0.667954
    13  C   -0.637848
    14  C    0.659659
    15  H    0.237215
    16  H    0.257012
    17  H    0.249444
    18  H    0.222471
    19  H    0.190176
    20  H    0.221508
    21  H    0.248546
    22  H    0.255884
    23  H    0.236567
    24  H    0.250894
    25  H    0.250894
 Sum of Mulliken charges =   1.00000

 Dipole moment (field-independent basis, Debye):
    X=              0.1392    Y=              0.1816    Z=             -0.0000  Tot=              0.2288
 Quadrupole moment (field-independent basis, Debye-Ang):
   XX=            -31.1559   YY=            -56.2506   ZZ=            -84.1401
   XY=              0.1766   XZ=             -0.0000   YZ=              0.0000

 Normal termination of Gaussian 16 at Tue Aug  2 11:19:23 2022.
