 Gaussian 16, Revision C.01,
 Gaussian 16:  ES64L-G16RevC.01  3-Jul-2019

 ---------------------------------------------------------------
 #n M062X/6-311++G(d,p) TD(NStates=1) EmpiricalDispersion=GD3 SP
 ---------------------------------------------------------------

 -------
 SP_-125
 -------
 Symbolic Z-matrix:
 Charge =  1 Multiplicity = 1

                         Standard orientation:
 ---------------------------------------------------------------------
 Center     Atomic      Atomic             Coordinates (Angstroms)
 Number     Number       Type             X           Y           Z
 ---------------------------------------------------------------------
      1          6           0        0.025332    2.848968    0.000000
      2          6           0       -1.145841    3.599820    0.000000
      3          6           0       -2.350031    2.926196    0.000000
      4          6           0       -2.383809    1.503403    0.000000
      5          6           0       -0.085771   -2.853768    0.000000
      6          6           0        1.088384   -3.587999    0.000000
      7          6           0        2.318106   -2.939578    0.000000
      8          6           0        2.365675   -1.546406    0.000000
      9          6           0        1.273217    0.687114    0.000000
     10          6           0       -1.249769   -0.693122    0.000000
     11          6           0        0.000000    1.424814    0.000000
     12          6           0       -1.221223    0.740837    0.000000
     13          6           0        1.199053   -0.795854    0.000000
     14          6           0       -0.060118   -1.446197    0.000000
     15          1           0        0.988608    3.345108    0.000000
     16          1           0       -1.109324    4.678562    0.000000
     17          1           0       -3.285513    3.468667    0.000000
     18          1           0       -3.345978    1.006448    0.000000
     19          1           0       -2.205156   -1.199375    0.000000
     20          1           0       -1.042806   -3.359306    0.000000
     21          1           0        1.045468   -4.668113    0.000000
     22          1           0        3.235342   -3.510330    0.000000
     23          1           0        3.323957   -1.041519    0.000000
     24          1           0        1.878090    1.035247    0.857935
     25          1           0        1.878090    1.035247   -0.857935
 ---------------------------------------------------------------------

 SCF Done:  E(RM062X) =  -539.758351685     A.U. after   15 cycles

 Excitation energies and oscillator strengths:

 Excited State   1:      Singlet-A'     2.7711 eV  447.42 nm  f=0.0252  <S**2>=0.000
      47 -> 48         0.70380
 This state for optimization and/or second-order correction.
 Total Energy, E(TD-HF/TD-DFT) =  -539.656516216
 Copying the excited state density for this state as the 1-particle RhoCI density.

 The electronic state is 1-A'.
 Alpha  occ. eigenvalues --  -10.77629 -10.73485 -10.72910 -10.72644 -10.72178
 Alpha  occ. eigenvalues --  -10.71632 -10.71536 -10.71082 -10.70960 -10.70507
 Alpha  occ. eigenvalues --  -10.70101 -10.69842 -10.69783 -10.69454  -1.16509
 Alpha  occ. eigenvalues --   -1.12494  -1.06942  -1.05828  -1.01307  -1.00297
 Alpha  occ. eigenvalues --   -0.95715  -0.91065  -0.86430  -0.85914  -0.83818
 Alpha  occ. eigenvalues --   -0.78388  -0.76096  -0.74408  -0.69613  -0.69276
 Alpha  occ. eigenvalues --   -0.68459  -0.68170  -0.68088  -0.64929  -0.64275
 Alpha  occ. eigenvalues --   -0.63005  -0.61800  -0.60160  -0.59503  -0.59105
 Alpha  occ. eigenvalues --   -0.56930  -0.55235  -0.54770  -0.52434  -0.46857
 Alpha  occ. eigenvalues --   -0.46085  -0.44252
 Alpha virt. eigenvalues --   -0.26078  -0.14672  -0.14091  -0.12767  -0.11184
 Alpha virt. eigenvalues --   -0.10093  -0.09238  -0.07977  -0.07950  -0.07479
 Alpha virt. eigenvalues --   -0.07211  -0.07146  -0.05642  -0.05582  -0.05341

 Mulliken charges:
               1
     1  C    0.105917
     2  C   -0.410543
     3  C   -0.442253
     4  C    0.013792
     5  C    0.034246
     6  C   -0.437093
     7  C   -0.403764
     8  C    0.081304
     9  C   -0.320026
    10  C    0.099544
    11  C   -0.628464
    12  C    0.652465
    13  C   -0.649873
    14  C    0.684276
    15  H    0.235718
    16  H    0.254171
    17  H    0.247188
    18  H    0.220112
    19  H    0.189966
    20  H    0.223929
    21  H    0.250781
    22  H    0.258673
    23  H    0.238294
    24  H    0.250820
    25  H    0.250820
 Sum of Mulliken charges =   1.00000

 Dipole moment (field-independent basis, Debye):
    X=              0.1059    Y=             -0.5773    Z=             -0.0000  Tot=              0.5869
 Quadrupole moment (field-independent basis, Debye-Ang):
   XX=            -50.9355   YY=            -36.4434   ZZ=            -84.1375
   XY=            -10.2731   XZ=              0.0000   YZ=              0.0000

 Normal termination of Gaussian 16 at Tue Aug  2 10:53:24 2022.
