 Gaussian 16, Revision C.01,
 Gaussian 16:  ES64L-G16RevC.01  3-Jul-2019

 ---------------------------------------------------------------
 #n M062X/6-311++G(d,p) TD(NStates=1) EmpiricalDispersion=GD3 SP
 ---------------------------------------------------------------

 -------
 SP_-100
 -------
 Symbolic Z-matrix:
 Charge =  1 Multiplicity = 1

                         Standard orientation:
 ---------------------------------------------------------------------
 Center     Atomic      Atomic             Coordinates (Angstroms)
 Number     Number       Type             X           Y           Z
 ---------------------------------------------------------------------
      1          6           0        0.024261    2.846467    0.000000
      2          6           0       -1.148746    3.594639    0.000000
      3          6           0       -2.355040    2.921825    0.000000
      4          6           0       -2.389025    1.503833    0.000000
      5          6           0       -0.083254   -2.849292    0.000000
      6          6           0        1.094509   -3.586799    0.000000
      7          6           0        2.324080   -2.940579    0.000000
      8          6           0        2.368513   -1.547900    0.000000
      9          6           0        1.274597    0.686851    0.000000
     10          6           0       -1.252139   -0.688741    0.000000
     11          6           0        0.000000    1.426639    0.000000
     12          6           0       -1.223222    0.741895    0.000000
     13          6           0        1.197596   -0.794877    0.000000
     14          6           0       -0.059828   -1.443695    0.000000
     15          1           0        0.985918    3.345562    0.000000
     16          1           0       -1.112945    4.673517    0.000000
     17          1           0       -3.289050    3.466573    0.000000
     18          1           0       -3.349682    1.004177    0.000000
     19          1           0       -2.206850   -1.196212    0.000000
     20          1           0       -1.038975   -3.357408    0.000000
     21          1           0        1.048702   -4.666770    0.000000
     22          1           0        3.241471   -3.510842    0.000000
     23          1           0        3.325305   -1.040159    0.000000
     24          1           0        1.881153    1.029980    0.858210
     25          1           0        1.881153    1.029980   -0.858210
 ---------------------------------------------------------------------

 SCF Done:  E(RM062X) =  -539.759139712     A.U. after   15 cycles

 Excitation energies and oscillator strengths:

 Excited State   1:      Singlet-A'     2.7921 eV  444.05 nm  f=0.0265  <S**2>=0.000
      47 -> 48         0.70395
 This state for optimization and/or second-order correction.
 Total Energy, E(TD-HF/TD-DFT) =  -539.656530923
 Copying the excited state density for this state as the 1-particle RhoCI density.

 The electronic state is 1-A'.
 Alpha  occ. eigenvalues --  -10.77641 -10.73421 -10.72990 -10.72593 -10.72243
 Alpha  occ. eigenvalues --  -10.71567 -10.71402 -10.71155 -10.70962 -10.70630
 Alpha  occ. eigenvalues --  -10.70069 -10.69874 -10.69744 -10.69497  -1.16490
 Alpha  occ. eigenvalues --   -1.12488  -1.06943  -1.05802  -1.01310  -1.00260
 Alpha  occ. eigenvalues --   -0.95742  -0.91065  -0.86426  -0.85912  -0.83820
 Alpha  occ. eigenvalues --   -0.78395  -0.76076  -0.74413  -0.69587  -0.69266
 Alpha  occ. eigenvalues --   -0.68481  -0.68183  -0.68091  -0.64854  -0.64281
 Alpha  occ. eigenvalues --   -0.63044  -0.61830  -0.60096  -0.59568  -0.59098
 Alpha  occ. eigenvalues --   -0.56921  -0.55225  -0.54806  -0.52434  -0.46765
 Alpha  occ. eigenvalues --   -0.46075  -0.44349
 Alpha virt. eigenvalues --   -0.26078  -0.14672  -0.14093  -0.12769  -0.11182
 Alpha virt. eigenvalues --   -0.10091  -0.09234  -0.07979  -0.07957  -0.07478
 Alpha virt. eigenvalues --   -0.07209  -0.07146  -0.05642  -0.05582  -0.05338

 Mulliken charges:
               1
     1  C    0.102579
     2  C   -0.409619
     3  C   -0.441816
     4  C    0.014972
     5  C    0.030191
     6  C   -0.437875
     7  C   -0.404575
     8  C    0.084208
     9  C   -0.321800
    10  C    0.099131
    11  C   -0.631240
    12  C    0.659697
    13  C   -0.647483
    14  C    0.683349
    15  H    0.236072
    16  H    0.254713
    17  H    0.247620
    18  H    0.220581
    19  H    0.190106
    20  H    0.223437
    21  H    0.250317
    22  H    0.258093
    23  H    0.238008
    24  H    0.250666
    25  H    0.250666
 Sum of Mulliken charges =   1.00000

 Dipole moment (field-independent basis, Debye):
    X=              0.0382    Y=             -0.4554    Z=              0.0000  Tot=              0.4570
 Quadrupole moment (field-independent basis, Debye-Ang):
   XX=            -50.8630   YY=            -36.5227   ZZ=            -84.1390
   XY=            -10.3200   XZ=              0.0000   YZ=              0.0000

 Normal termination of Gaussian 16 at Tue Aug  2 11:08:00 2022.
