 Gaussian 16, Revision C.01,
 Gaussian 16:  ES64L-G16RevC.01  3-Jul-2019

 ---------------------------------------------------------------
 #n M062X/6-311++G(d,p) TD(NStates=1) EmpiricalDispersion=GD3 SP
 ---------------------------------------------------------------

 -------
 SP_-125
 -------
 Symbolic Z-matrix:
 Charge =  1 Multiplicity = 1

                         Standard orientation:
 ---------------------------------------------------------------------
 Center     Atomic      Atomic             Coordinates (Angstroms)
 Number     Number       Type             X           Y           Z
 ---------------------------------------------------------------------
      1          6           0        0.024946    2.845768    0.000000
      2          6           0       -1.148402    3.594290    0.000000
      3          6           0       -2.354485    2.921772    0.000000
      4          6           0       -2.388927    1.503811    0.000000
      5          6           0       -0.083162   -2.849203    0.000000
      6          6           0        1.094843   -3.586290    0.000000
      7          6           0        2.324039   -2.940057    0.000000
      8          6           0        2.368345   -1.546900    0.000000
      9          6           0        1.272637    0.685849    0.000000
     10          6           0       -1.252044   -0.688707    0.000000
     11          6           0        0.000000    1.426560    0.000000
     12          6           0       -1.223455    0.741988    0.000000
     13          6           0        1.197546   -0.794813    0.000000
     14          6           0       -0.059852   -1.443945    0.000000
     15          1           0        0.986691    3.344752    0.000000
     16          1           0       -1.112388    4.673174    0.000000
     17          1           0       -3.288460    3.466702    0.000000
     18          1           0       -3.349696    1.004312    0.000000
     19          1           0       -2.206794   -1.196211    0.000000
     20          1           0       -1.038806   -3.357516    0.000000
     21          1           0        1.049227   -4.666335    0.000000
     22          1           0        3.241564   -3.510129    0.000000
     23          1           0        3.325085   -1.039006    0.000000
     24          1           0        1.880703    1.029761    0.857660
     25          1           0        1.880703    1.029761   -0.857660
 ---------------------------------------------------------------------

 SCF Done:  E(RM062X) =  -539.759085947     A.U. after   15 cycles

 Excitation energies and oscillator strengths:

 Excited State   1:      Singlet-A'     2.7921 eV  444.05 nm  f=0.0266  <S**2>=0.000
      47 -> 48         0.70395
 This state for optimization and/or second-order correction.
 Total Energy, E(TD-HF/TD-DFT) =  -539.656478233
 Copying the excited state density for this state as the 1-particle RhoCI density.

 The electronic state is 1-A'.
 Alpha  occ. eigenvalues --  -10.77637 -10.73408 -10.72977 -10.72589 -10.72239
 Alpha  occ. eigenvalues --  -10.71566 -10.71404 -10.71153 -10.70956 -10.70632
 Alpha  occ. eigenvalues --  -10.70068 -10.69874 -10.69741 -10.69493  -1.16503
 Alpha  occ. eigenvalues --   -1.12497  -1.06943  -1.05823  -1.01310  -1.00275
 Alpha  occ. eigenvalues --   -0.95741  -0.91071  -0.86428  -0.85917  -0.83824
 Alpha  occ. eigenvalues --   -0.78397  -0.76088  -0.74415  -0.69581  -0.69269
 Alpha  occ. eigenvalues --   -0.68486  -0.68188  -0.68088  -0.64857  -0.64286
 Alpha  occ. eigenvalues --   -0.63061  -0.61832  -0.60087  -0.59569  -0.59094
 Alpha  occ. eigenvalues --   -0.56927  -0.55223  -0.54814  -0.52433  -0.46773
 Alpha  occ. eigenvalues --   -0.46075  -0.44342
 Alpha virt. eigenvalues --   -0.26073  -0.14673  -0.14093  -0.12768  -0.11183
 Alpha virt. eigenvalues --   -0.10093  -0.09234  -0.07979  -0.07954  -0.07478
 Alpha virt. eigenvalues --   -0.07211  -0.07147  -0.05641  -0.05583  -0.05339

 Mulliken charges:
               1
     1  C    0.102621
     2  C   -0.409581
     3  C   -0.441749
     4  C    0.018186
     5  C    0.033747
     6  C   -0.437980
     7  C   -0.404432
     8  C    0.083960
     9  C   -0.316503
    10  C    0.101804
    11  C   -0.632576
    12  C    0.652711
    13  C   -0.647953
    14  C    0.677139
    15  H    0.235954
    16  H    0.254757
    17  H    0.247650
    18  H    0.220563
    19  H    0.190045
    20  H    0.223448
    21  H    0.250348
    22  H    0.258133
    23  H    0.237893
    24  H    0.250908
    25  H    0.250908
 Sum of Mulliken charges =   1.00000

 Dipole moment (field-independent basis, Debye):
    X=              0.0398    Y=             -0.4545    Z=              0.0000  Tot=              0.4562
 Quadrupole moment (field-independent basis, Debye-Ang):
   XX=            -50.8629   YY=            -36.5312   ZZ=            -84.1385
   XY=            -10.3139   XZ=              0.0000   YZ=              0.0000

 Normal termination of Gaussian 16 at Tue Aug  2 10:52:18 2022.
