 Gaussian 16, Revision C.01,
 Gaussian 16:  ES64L-G16RevC.01  3-Jul-2019

 ---------------------------------------------------------------
 #n M062X/6-311++G(d,p) TD(NStates=1) EmpiricalDispersion=GD3 SP
 ---------------------------------------------------------------

 ------
 SP_-50
 ------
 Symbolic Z-matrix:
 Charge =  1 Multiplicity = 1

                         Standard orientation:
 ---------------------------------------------------------------------
 Center     Atomic      Atomic             Coordinates (Angstroms)
 Number     Number       Type             X           Y           Z
 ---------------------------------------------------------------------
      1          6           0        0.023678    2.854268    0.000000
      2          6           0       -1.144295    3.606400    0.000000
      3          6           0       -2.347230    2.930782    0.000000
      4          6           0       -2.378985    1.503057    0.000000
      5          6           0       -0.088670   -2.858597    0.000000
      6          6           0        1.080910   -3.591225    0.000000
      7          6           0        2.312291   -2.940660    0.000000
      8          6           0        2.363502   -1.548915    0.000000
      9          6           0        1.279685    0.691374    0.000000
     10          6           0       -1.247791   -0.697639    0.000000
     11          6           0        0.000000    1.423308    0.000000
     12          6           0       -1.218293    0.739406    0.000000
     13          6           0        1.200705   -0.797093    0.000000
     14          6           0       -0.060317   -1.447703    0.000000
     15          1           0        0.988217    3.347895    0.000000
     16          1           0       -1.107914    4.684982    0.000000
     17          1           0       -3.284328    3.470252    0.000000
     18          1           0       -3.342216    1.008182    0.000000
     19          1           0       -2.203694   -1.202543    0.000000
     20          1           0       -1.047322   -3.360763    0.000000
     21          1           0        1.040119   -4.671192    0.000000
     22          1           0        3.228829   -3.512667    0.000000
     23          1           0        3.323481   -1.047498    0.000000
     24          1           0        1.876845    1.041390    0.859860
     25          1           0        1.876845    1.041390   -0.859860
 ---------------------------------------------------------------------

 SCF Done:  E(RM062X) =  -539.757516041     A.U. after   15 cycles

 Excitation energies and oscillator strengths:

 Excited State   1:      Singlet-A'     2.7453 eV  451.63 nm  f=0.0232  <S**2>=0.000
      47 -> 48         0.70369
 This state for optimization and/or second-order correction.
 Total Energy, E(TD-HF/TD-DFT) =  -539.656628726
 Copying the excited state density for this state as the 1-particle RhoCI density.

 The electronic state is 1-A'.
 Alpha  occ. eigenvalues --  -10.77632 -10.73602 -10.72881 -10.72711 -10.72129
 Alpha  occ. eigenvalues --  -10.71700 -10.71663 -10.71016 -10.70984 -10.70378
 Alpha  occ. eigenvalues --  -10.70136 -10.69835 -10.69810 -10.69426  -1.16480
 Alpha  occ. eigenvalues --   -1.12465  -1.06941  -1.05775  -1.01301  -1.00281
 Alpha  occ. eigenvalues --   -0.95687  -0.91043  -0.86428  -0.85896  -0.83798
 Alpha  occ. eigenvalues --   -0.78371  -0.76073  -0.74394  -0.69666  -0.69279
 Alpha  occ. eigenvalues --   -0.68413  -0.68132  -0.68099  -0.64997  -0.64250
 Alpha  occ. eigenvalues --   -0.62897  -0.61747  -0.60260  -0.59438  -0.59126
 Alpha  occ. eigenvalues --   -0.56915  -0.55249  -0.54698  -0.52439  -0.46940
 Alpha  occ. eigenvalues --   -0.46099  -0.44160
 Alpha virt. eigenvalues --   -0.26097  -0.14667  -0.14089  -0.12769  -0.11183
 Alpha virt. eigenvalues --   -0.10089  -0.09242  -0.07973  -0.07952  -0.07479
 Alpha virt. eigenvalues --   -0.07206  -0.07141  -0.05645  -0.05578  -0.05341

 Mulliken charges:
               1
     1  C    0.107769
     2  C   -0.411031
     3  C   -0.443069
     4  C    0.000819
     5  C    0.024269
     6  C   -0.435668
     7  C   -0.403096
     8  C    0.078752
     9  C   -0.339573
    10  C    0.088198
    11  C   -0.617268
    12  C    0.672279
    13  C   -0.649322
    14  C    0.707534
    15  H    0.235820
    16  H    0.253458
    17  H    0.246643
    18  H    0.219773
    19  H    0.190046
    20  H    0.224372
    21  H    0.251119
    22  H    0.259103
    23  H    0.239020
    24  H    0.250027
    25  H    0.250027
 Sum of Mulliken charges =   1.00000

 Dipole moment (field-independent basis, Debye):
    X=              0.1676    Y=             -0.7026    Z=              0.0000  Tot=              0.7223
 Quadrupole moment (field-independent basis, Debye-Ang):
   XX=            -51.0079   YY=            -36.3277   ZZ=            -84.1375
   XY=            -10.2521   XZ=              0.0000   YZ=             -0.0000

 Normal termination of Gaussian 16 at Tue Aug  2 11:41:21 2022.
