 Gaussian 16, Revision C.01,
 Gaussian 16:  ES64L-G16RevC.01  3-Jul-2019

 ---------------------------------------------------------------
 #n M062X/6-311++G(d,p) TD(NStates=1) EmpiricalDispersion=GD3 SP
 ---------------------------------------------------------------

 -------
 SP_-150
 -------
 Symbolic Z-matrix:
 Charge =  1 Multiplicity = 1

                         Standard orientation:
 ---------------------------------------------------------------------
 Center     Atomic      Atomic             Coordinates (Angstroms)
 Number     Number       Type             X           Y           Z
 ---------------------------------------------------------------------
      1          6           0        0.025256    2.841873    0.000000
      2          6           0       -1.150602    3.588411    0.000000
      3          6           0       -2.358373    2.917294    0.000000
      4          6           0       -2.393947    1.504195    0.000000
      5          6           0       -0.080476   -2.844547    0.000000
      6          6           0        1.101627   -3.584066    0.000000
      7          6           0        2.329926   -2.940012    0.000000
      8          6           0        2.370847   -1.546395    0.000000
      9          6           0        1.270104    0.683576    0.000000
     10          6           0       -1.254233   -0.684260    0.000000
     11          6           0        0.000000    1.428227    0.000000
     12          6           0       -1.225922    0.743230    0.000000
     13          6           0        1.195987   -0.793713    0.000000
     14          6           0       -0.059617   -1.441942    0.000000
     15          1           0        0.985557    3.343584    0.000000
     16          1           0       -1.114875    4.667445    0.000000
     17          1           0       -3.290810    3.464871    0.000000
     18          1           0       -3.353424    1.002311    0.000000
     19          1           0       -2.208387   -1.193044    0.000000
     20          1           0       -1.034648   -3.355828    0.000000
     21          1           0        1.053500   -4.664120    0.000000
     22          1           0        3.247875   -3.509214    0.000000
     23          1           0        3.325987   -1.035345    0.000000
     24          1           0        1.882877    1.024056    0.856835
     25          1           0        1.882877    1.024056   -0.856835
 ---------------------------------------------------------------------

 SCF Done:  E(RM062X) =  -539.759534717     A.U. after   15 cycles

 Excitation energies and oscillator strengths:

 Excited State   1:      Singlet-A'     2.8080 eV  441.55 nm  f=0.0281  <S**2>=0.000
      47 -> 48         0.70410
 This state for optimization and/or second-order correction.
 Total Energy, E(TD-HF/TD-DFT) =  -539.656344102
 Copying the excited state density for this state as the 1-particle RhoCI density.

 The electronic state is 1-A'.
 Alpha  occ. eigenvalues --  -10.77637 -10.73318 -10.73030 -10.72527 -10.72294
 Alpha  occ. eigenvalues --  -10.71498 -10.71275 -10.71222 -10.70946 -10.70760
 Alpha  occ. eigenvalues --  -10.70035 -10.69905 -10.69695 -10.69529  -1.16514
 Alpha  occ. eigenvalues --   -1.12509  -1.06944  -1.05843  -1.01313  -1.00277
 Alpha  occ. eigenvalues --   -0.95757  -0.91081  -0.86428  -0.85925  -0.83834
 Alpha  occ. eigenvalues --   -0.78406  -0.76096  -0.74422  -0.69550  -0.69267
 Alpha  occ. eigenvalues --   -0.68510  -0.68208  -0.68084  -0.64805  -0.64303
 Alpha  occ. eigenvalues --   -0.63127  -0.61856  -0.60008  -0.59633  -0.59083
 Alpha  occ. eigenvalues --   -0.56933  -0.55208  -0.54858  -0.52430  -0.46718
 Alpha  occ. eigenvalues --   -0.46065  -0.44403
 Alpha virt. eigenvalues --   -0.26065  -0.14675  -0.14094  -0.12767  -0.11183
 Alpha virt. eigenvalues --   -0.10095  -0.09232  -0.07982  -0.07954  -0.07478
 Alpha virt. eigenvalues --   -0.07212  -0.07149  -0.05640  -0.05585  -0.05339

 Mulliken charges:
               1
     1  C    0.099029
     2  C   -0.408417
     3  C   -0.441184
     4  C    0.026036
     5  C    0.036763
     6  C   -0.438856
     7  C   -0.404849
     8  C    0.086260
     9  C   -0.307966
    10  C    0.106211
    11  C   -0.636971
    12  C    0.645913
    13  C   -0.646159
    14  C    0.663099
    15  H    0.236077
    16  H    0.255389
    17  H    0.248144
    18  H    0.221018
    19  H    0.190035
    20  H    0.222975
    21  H    0.249946
    22  H    0.257634
    23  H    0.237374
    24  H    0.251250
    25  H    0.251250
 Sum of Mulliken charges =   1.00000

 Dipole moment (field-independent basis, Debye):
    X=             -0.0245    Y=             -0.3305    Z=             -0.0000  Tot=              0.3314
 Quadrupole moment (field-independent basis, Debye-Ang):
   XX=            -50.7897   YY=            -36.6251   ZZ=            -84.1387
   XY=            -10.3500   XZ=              0.0000   YZ=              0.0000

 Normal termination of Gaussian 16 at Tue Aug  2 10:35:26 2022.
