 Gaussian 16, Revision C.01,
 Gaussian 16:  ES64L-G16RevC.01  3-Jul-2019

 ---------------------------------------------------------------
 #n M062X/6-311++G(d,p) TD(NStates=1) EmpiricalDispersion=GD3 SP
 ---------------------------------------------------------------

 ------
 SP_125
 ------
 Symbolic Z-matrix:
 Charge =  1 Multiplicity = 1

                         Standard orientation:
 ---------------------------------------------------------------------
 Center     Atomic      Atomic             Coordinates (Angstroms)
 Number     Number       Type             X           Y           Z
 ---------------------------------------------------------------------
      1          6           0       -2.369527   -1.553902    0.000000
      2          6           0       -2.324341   -2.943712    0.000000
      3          6           0       -1.092522   -3.589856    0.000000
      4          6           0        0.083791   -2.849834    0.000000
      5          6           0        2.389612    1.503942    0.000000
      6          6           0        2.358376    2.922127    0.000000
      7          6           0        1.150819    3.596721    0.000000
      8          6           0       -0.020145    2.850649    0.000000
      9          6           0       -1.286273    0.693016    0.000000
     10          6           0        1.252701   -0.688956    0.000000
     11          6           0       -1.197901   -0.795267    0.000000
     12          6           0        0.059671   -1.442210    0.000000
     13          6           0        0.000000    1.427107    0.000000
     14          6           0        1.221820    0.741325    0.000000
     15          1           0       -3.326638   -1.047077    0.000000
     16          1           0       -3.240925   -3.515117    0.000000
     17          1           0       -1.045572   -4.669384    0.000000
     18          1           0        1.039970   -3.356770    0.000000
     19          1           0        2.207175   -1.196235    0.000000
     20          1           0        3.349599    1.003350    0.000000
     21          1           0        3.292595    3.465778    0.000000
     22          1           0        1.116302    4.675562    0.000000
     23          1           0       -0.981274    3.350417    0.000000
     24          1           0       -1.883859    1.031291    0.861510
     25          1           0       -1.883859    1.031291   -0.861510
 ---------------------------------------------------------------------

 SCF Done:  E(RM062X) =  -539.759281820     A.U. after   15 cycles

 Excitation energies and oscillator strengths:

 Excited State   1:      Singlet-A'     2.7919 eV  444.08 nm  f=0.0258  <S**2>=0.000
      47 -> 48         0.70396
 This state for optimization and/or second-order correction.
 Total Energy, E(TD-HF/TD-DFT) =  -539.656680925
 Copying the excited state density for this state as the 1-particle RhoCI density.

 The electronic state is 1-A'.
 Alpha  occ. eigenvalues --  -10.77668 -10.73503 -10.73066 -10.72620 -10.72270
 Alpha  occ. eigenvalues --  -10.71574 -10.71389 -10.71164 -10.71004 -10.70617
 Alpha  occ. eigenvalues --  -10.70073 -10.69875 -10.69764 -10.69519  -1.16414
 Alpha  occ. eigenvalues --   -1.12437  -1.06945  -1.05677  -1.01308  -1.00171
 Alpha  occ. eigenvalues --   -0.95752  -0.91034  -0.86416  -0.85884  -0.83796
 Alpha  occ. eigenvalues --   -0.78382  -0.76005  -0.74405  -0.69619  -0.69248
 Alpha  occ. eigenvalues --   -0.68456  -0.68153  -0.68114  -0.64830  -0.64249
 Alpha  occ. eigenvalues --   -0.62939  -0.61816  -0.60159  -0.59558  -0.59114
 Alpha  occ. eigenvalues --   -0.56882  -0.55239  -0.54754  -0.52444  -0.46722
 Alpha  occ. eigenvalues --   -0.46079  -0.44387
 Alpha virt. eigenvalues --   -0.26108  -0.14664  -0.14096  -0.12775  -0.11178
 Alpha virt. eigenvalues --   -0.10082  -0.09235  -0.07978  -0.07972  -0.07476
 Alpha virt. eigenvalues --   -0.07198  -0.07140  -0.05646  -0.05578  -0.05332

 Mulliken charges:
               1
     1  C    0.082736
     2  C   -0.403841
     3  C   -0.437322
     4  C    0.010925
     5  C   -0.002270
     6  C   -0.442159
     7  C   -0.408438
     8  C    0.099380
     9  C   -0.353013
    10  C    0.081275
    11  C   -0.639419
    12  C    0.715924
    13  C   -0.618488
    14  C    0.696289
    15  H    0.238631
    16  H    0.257870
    17  H    0.250134
    18  H    0.223435
    19  H    0.190476
    20  H    0.220734
    21  H    0.247449
    22  H    0.254468
    23  H    0.236702
    24  H    0.249260
    25  H    0.249260
 Sum of Mulliken charges =   1.00000

 Dipole moment (field-independent basis, Debye):
    X=             -0.0290    Y=             -0.4609    Z=             -0.0000  Tot=              0.4618
 Quadrupole moment (field-independent basis, Debye-Ang):
   XX=            -50.8635   YY=            -36.4728   ZZ=            -84.1417
   XY=             10.3560   XZ=              0.0000   YZ=             -0.0000

 Normal termination of Gaussian 16 at Tue Aug  2 13:20:10 2022.
