 Gaussian 16, Revision C.01,
 Gaussian 16:  ES64L-G16RevC.01  3-Jul-2019

 ---------------------------------------------------------------
 #n M062X/6-311++G(d,p) TD(NStates=1) EmpiricalDispersion=GD3 SP
 ---------------------------------------------------------------

 -----
 SP_25
 -----
 Symbolic Z-matrix:
 Charge =  1 Multiplicity = 1

                         Standard orientation:
 ---------------------------------------------------------------------
 Center     Atomic      Atomic             Coordinates (Angstroms)
 Number     Number       Type             X           Y           Z
 ---------------------------------------------------------------------
      1          6           0        0.020458    2.846758    0.000000
      2          6           0       -1.153012    3.590855    0.000000
      3          6           0       -2.362257    2.917665    0.000000
      4          6           0       -2.394631    1.504345    0.000000
      5          6           0       -0.081119   -2.845169    0.000000
      6          6           0        1.099290   -3.587629    0.000000
      7          6           0        2.330215   -2.943666    0.000000
      8          6           0        2.372023   -1.553396    0.000000
      9          6           0        1.283812    0.690606    0.000000
     10          6           0       -1.254898   -0.684495    0.000000
     11          6           0        0.000000    1.428784    0.000000
     12          6           0       -1.224289    0.742583    0.000000
     13          6           0        1.196334   -0.794162    0.000000
     14          6           0       -0.059448   -1.440197    0.000000
     15          1           0        0.980142    3.349250    0.000000
     16          1           0       -1.118779    4.669843    0.000000
     17          1           0       -3.294935    3.463966    0.000000
     18          1           0       -3.353328    1.001372    0.000000
     19          1           0       -2.208777   -1.193050    0.000000
     20          1           0       -1.035831   -3.355069    0.000000
     21          1           0        1.049823   -4.667167    0.000000
     22          1           0        3.247221   -3.514205    0.000000
     23          1           0        3.327538   -1.043418    0.000000
     24          1           0        1.886030    1.025592    0.860685
     25          1           0        1.886030    1.025592   -0.860685
 ---------------------------------------------------------------------

 SCF Done:  E(RM062X) =  -539.759814872     A.U. after   15 cycles

 Excitation energies and oscillator strengths:

 Excited State   1:      Singlet-A'     2.8088 eV  441.41 nm  f=0.0272  <S**2>=0.000
      47 -> 48         0.70410
 This state for optimization and/or second-order correction.
 Total Energy, E(TD-HF/TD-DFT) =  -539.656592438
 Copying the excited state density for this state as the 1-particle RhoCI density.

 The electronic state is 1-A'.
 Alpha  occ. eigenvalues --  -10.77669 -10.73411 -10.73121 -10.72558 -10.72325
 Alpha  occ. eigenvalues --  -10.71507 -10.71260 -10.71232 -10.70993 -10.70746
 Alpha  occ. eigenvalues --  -10.70039 -10.69908 -10.69718 -10.69554  -1.16424
 Alpha  occ. eigenvalues --   -1.12449  -1.06945  -1.05698  -1.01311  -1.00172
 Alpha  occ. eigenvalues --   -0.95769  -0.91044  -0.86417  -0.85892  -0.83805
 Alpha  occ. eigenvalues --   -0.78391  -0.76012  -0.74412  -0.69590  -0.69245
 Alpha  occ. eigenvalues --   -0.68480  -0.68173  -0.68109  -0.64781  -0.64265
 Alpha  occ. eigenvalues --   -0.62999  -0.61844  -0.60087  -0.59614  -0.59104
 Alpha  occ. eigenvalues --   -0.56887  -0.55228  -0.54797  -0.52441  -0.46665
 Alpha  occ. eigenvalues --   -0.46067  -0.44452
 Alpha virt. eigenvalues --   -0.26099  -0.14666  -0.14097  -0.12774  -0.11178
 Alpha virt. eigenvalues --   -0.10083  -0.09232  -0.07981  -0.07972  -0.07476
 Alpha virt. eigenvalues --   -0.07200  -0.07142  -0.05645  -0.05579  -0.05332

 Mulliken charges:
               1
     1  C    0.097730
     2  C   -0.408080
     3  C   -0.441435
     4  C    0.004142
     5  C    0.013217
     6  C   -0.438350
     7  C   -0.405012
     8  C    0.086194
     9  C   -0.344771
    10  C    0.086700
    11  C   -0.626355
    12  C    0.691432
    13  C   -0.639541
    14  C    0.705279
    15  H    0.236861
    16  H    0.255092
    17  H    0.247937
    18  H    0.221134
    19  H    0.190457
    20  H    0.222961
    21  H    0.249731
    22  H    0.257358
    23  H    0.238154
    24  H    0.249582
    25  H    0.249582
 Sum of Mulliken charges =   1.00000

 Dipole moment (field-independent basis, Debye):
    X=             -0.0356    Y=             -0.3368    Z=              0.0000  Tot=              0.3386
 Quadrupole moment (field-independent basis, Debye-Ang):
   XX=            -50.7905   YY=            -36.5657   ZZ=            -84.1419
   XY=            -10.3924   XZ=             -0.0000   YZ=             -0.0000

 Normal termination of Gaussian 16 at Tue Aug  2 12:23:48 2022.
