 Gaussian 16, Revision C.01,
 Gaussian 16:  ES64L-G16RevC.01  3-Jul-2019

 ---------------------------------------------------------------
 #n M062X/6-311++G(d,p) TD(NStates=1) EmpiricalDispersion=GD3 SP
 ---------------------------------------------------------------

 ------
 SP_100
 ------
 Symbolic Z-matrix:
 Charge =  1 Multiplicity = 1

                         Standard orientation:
 ---------------------------------------------------------------------
 Center     Atomic      Atomic             Coordinates (Angstroms)
 Number     Number       Type             X           Y           Z
 ---------------------------------------------------------------------
      1          6           0        0.098256   -2.808845    0.000000
      2          6           0        1.324118   -3.475165    0.000000
      3          6           0        2.529503   -2.765214    0.000000
      4          6           0        2.514943   -1.409123    0.000000
      5          6           0       -0.060887    2.790251    0.000000
      6          6           0       -1.317453    3.518038    0.000000
      7          6           0       -2.517902    2.851817    0.000000
      8          6           0       -2.465454    1.464535    0.000000
      9          6           0       -1.254738   -0.729357    0.000000
     10          6           0        1.256917    0.682855    0.000000
     11          6           0        0.058287   -1.448892    0.000000
     12          6           0        1.279857   -0.705201    0.000000
     13          6           0       -1.208676    0.734373    0.000000
     14          6           0        0.000000    1.413600    0.000000
     15          1           0       -0.820197   -3.382784    0.000000
     16          1           0        1.339833   -4.556056    0.000000
     17          1           0        3.466909   -3.303669    0.000000
     18          1           0        3.434058   -0.838122    0.000000
     19          1           0        2.181225    1.243669    0.000000
     20          1           0        0.854568    3.369771    0.000000
     21          1           0       -1.278224    4.599455    0.000000
     22          1           0       -3.459749    3.377507    0.000000
     23          1           0       -3.379673    0.882094    0.000000
     24          1           0       -1.879689   -1.036956    0.859035
     25          1           0       -1.879689   -1.036956   -0.859035
 ---------------------------------------------------------------------

 SCF Done:  E(RM062X) =  -539.749285397     A.U. after   16 cycles

 Excitation energies and oscillator strengths:

 Excited State   1:      Singlet-A'     2.5885 eV  478.98 nm  f=0.0175  <S**2>=0.000
      47 -> 48         0.70341
 This state for optimization and/or second-order correction.
 Total Energy, E(TD-HF/TD-DFT) =  -539.654159682
 Copying the excited state density for this state as the 1-particle RhoCI density.

 The electronic state is 1-A'.
 Alpha  occ. eigenvalues --  -10.77516 -10.73918 -10.72938 -10.72494 -10.72350
 Alpha  occ. eigenvalues --  -10.71997 -10.71784 -10.70980 -10.70643 -10.70296
 Alpha  occ. eigenvalues --  -10.70027 -10.69801 -10.69647 -10.69216  -1.16628
 Alpha  occ. eigenvalues --   -1.12489  -1.06933  -1.05969  -1.01269  -1.00573
 Alpha  occ. eigenvalues --   -0.95440  -0.91014  -0.86459  -0.85891  -0.83757
 Alpha  occ. eigenvalues --   -0.78292  -0.76226  -0.74343  -0.69900  -0.69364
 Alpha  occ. eigenvalues --   -0.68209  -0.68079  -0.68005  -0.65509  -0.64230
 Alpha  occ. eigenvalues --   -0.62635  -0.61423  -0.60621  -0.59194  -0.59098
 Alpha  occ. eigenvalues --   -0.56974  -0.55267  -0.54400  -0.52439  -0.47656
 Alpha  occ. eigenvalues --   -0.46139  -0.43452
 Alpha virt. eigenvalues --   -0.26110  -0.14667  -0.14062  -0.12749  -0.11200
 Alpha virt. eigenvalues --   -0.10102  -0.09277  -0.07946  -0.07895  -0.07490
 Alpha virt. eigenvalues --   -0.07221  -0.07130  -0.05647  -0.05570  -0.05367

 Mulliken charges:
               1
     1  C    0.067063
     2  C   -0.399776
     3  C   -0.430231
     4  C    0.037856
     5  C   -0.008304
     6  C   -0.444606
     7  C   -0.416249
     8  C    0.125448
     9  C   -0.341060
    10  C    0.081643
    11  C   -0.660350
    12  C    0.715175
    13  C   -0.593071
    14  C    0.646241
    15  H    0.240619
    16  H    0.261905
    17  H    0.253383
    18  H    0.226759
    19  H    0.188824
    20  H    0.217674
    21  H    0.244481
    22  H    0.250745
    23  H    0.234372
    24  H    0.250731
    25  H    0.250731
 Sum of Mulliken charges =   1.00000

 Dipole moment (field-independent basis, Debye):
    X=              0.8502    Y=             -1.1095    Z=              0.0000  Tot=              1.3978
 Quadrupole moment (field-independent basis, Debye-Ang):
   XX=            -48.9703   YY=            -38.2614   ZZ=            -84.1236
   XY=            -11.5071   XZ=              0.0000   YZ=             -0.0000

 Normal termination of Gaussian 16 at Tue Aug  2 12:56:43 2022.
