 Gaussian 16, Revision C.01,
 Gaussian 16:  ES64L-G16RevC.01  3-Jul-2019

 ---------------------------------------------------------------
 #n M062X/6-311++G(d,p) TD(NStates=1) EmpiricalDispersion=GD3 SP
 ---------------------------------------------------------------

 -----
 SP_50
 -----
 Symbolic Z-matrix:
 Charge =  1 Multiplicity = 1

                         Standard orientation:
 ---------------------------------------------------------------------
 Center     Atomic      Atomic             Coordinates (Angstroms)
 Number     Number       Type             X           Y           Z
 ---------------------------------------------------------------------
      1          6           0       -2.363334   -1.547914    0.000000
      2          6           0       -2.312249   -2.940138    0.000000
      3          6           0       -1.081242   -3.590716    0.000000
      4          6           0        0.088580   -2.858507    0.000000
      5          6           0        2.378887    1.503038    0.000000
      6          6           0        2.346674    2.930730    0.000000
      7          6           0        1.143951    3.606053    0.000000
      8          6           0       -0.024362    2.853569    0.000000
      9          6           0       -1.277735    0.690353    0.000000
     10          6           0        1.247696   -0.697604    0.000000
     11          6           0       -1.200655   -0.797028    0.000000
     12          6           0        0.060344   -1.447951    0.000000
     13          6           0        0.000000    1.423230    0.000000
     14          6           0        1.218527    0.739502    0.000000
     15          1           0       -3.323261   -1.046345    0.000000
     16          1           0       -3.228921   -3.511955    0.000000
     17          1           0       -1.040641   -4.670758    0.000000
     18          1           0        1.047156   -3.360870    0.000000
     19          1           0        2.203640   -1.202539    0.000000
     20          1           0        3.342230    1.008319    0.000000
     21          1           0        3.283737    3.470383    0.000000
     22          1           0        1.107355    4.684640    0.000000
     23          1           0       -0.988990    3.347085    0.000000
     24          1           0       -1.876393    1.041172    0.859310
     25          1           0       -1.876393    1.041172   -0.859310
 ---------------------------------------------------------------------

 SCF Done:  E(RM062X) =  -539.757485336     A.U. after   15 cycles

 Excitation energies and oscillator strengths:

 Excited State   1:      Singlet-A'     2.7456 eV  451.58 nm  f=0.0233  <S**2>=0.000
      47 -> 48         0.70369
 This state for optimization and/or second-order correction.
 Total Energy, E(TD-HF/TD-DFT) =  -539.656586993
 Copying the excited state density for this state as the 1-particle RhoCI density.

 The electronic state is 1-A'.
 Alpha  occ. eigenvalues --  -10.77627 -10.73588 -10.72869 -10.72707 -10.72125
 Alpha  occ. eigenvalues --  -10.71699 -10.71665 -10.71014 -10.70977 -10.70380
 Alpha  occ. eigenvalues --  -10.70135 -10.69831 -10.69810 -10.69422  -1.16492
 Alpha  occ. eigenvalues --   -1.12474  -1.06941  -1.05796  -1.01302  -1.00296
 Alpha  occ. eigenvalues --   -0.95685  -0.91048  -0.86430  -0.85901  -0.83802
 Alpha  occ. eigenvalues --   -0.78373  -0.76084  -0.74396  -0.69661  -0.69281
 Alpha  occ. eigenvalues --   -0.68417  -0.68137  -0.68095  -0.65002  -0.64255
 Alpha  occ. eigenvalues --   -0.62912  -0.61751  -0.60252  -0.59437  -0.59124
 Alpha  occ. eigenvalues --   -0.56922  -0.55248  -0.54705  -0.52438  -0.46947
 Alpha  occ. eigenvalues --   -0.46098  -0.44155
 Alpha virt. eigenvalues --   -0.26092  -0.14669  -0.14089  -0.12767  -0.11184
 Alpha virt. eigenvalues --   -0.10090  -0.09242  -0.07973  -0.07950  -0.07480
 Alpha virt. eigenvalues --   -0.07208  -0.07142  -0.05644  -0.05579  -0.05342

 Mulliken charges:
               1
     1  C    0.078879
     2  C   -0.403179
     3  C   -0.435813
     4  C    0.027614
     5  C    0.003602
     6  C   -0.442964
     7  C   -0.411242
     8  C    0.108376
     9  C   -0.334351
    10  C    0.091195
    11  C   -0.650389
    12  C    0.702293
    13  C   -0.619652
    14  C    0.665915
    15  H    0.238916
    16  H    0.259138
    17  H    0.251150
    18  H    0.224381
    19  H    0.189982
    20  H    0.219739
    21  H    0.246671
    22  H    0.253500
    23  H    0.235714
    24  H    0.250263
    25  H    0.250263
 Sum of Mulliken charges =   1.00000

 Dipole moment (field-independent basis, Debye):
    X=             -0.1691    Y=             -0.7016    Z=             -0.0000  Tot=              0.7217
 Quadrupole moment (field-independent basis, Debye-Ang):
   XX=            -51.0078   YY=            -36.3360   ZZ=            -84.1371
   XY=             10.2461   XZ=              0.0000   YZ=             -0.0000

 Normal termination of Gaussian 16 at Tue Aug  2 12:31:32 2022.
