 Gaussian 16, Revision C.01,
 Gaussian 16:  ES64L-G16RevC.01  3-Jul-2019

 ---------------------------------------------------------------
 #n M062X/6-311++G(d,p) TD(NStates=1) EmpiricalDispersion=GD3 SP
 ---------------------------------------------------------------

 ------
 SP_-50
 ------
 Symbolic Z-matrix:
 Charge =  1 Multiplicity = 1

                         Standard orientation:
 ---------------------------------------------------------------------
 Center     Atomic      Atomic             Coordinates (Angstroms)
 Number     Number       Type             X           Y           Z
 ---------------------------------------------------------------------
      1          6           0       -1.361030   -2.490752    0.000000
      2          6           0       -0.672338   -3.700555    0.000000
      3          6           0        0.712831   -3.683258    0.000000
      4          6           0        1.407339   -2.463053    0.000000
      5          6           0        1.407339    2.463059    0.000000
      6          6           0        0.712831    3.683264    0.000000
      7          6           0       -0.672338    3.700561    0.000000
      8          6           0       -1.361030    2.490758    0.000000
      9          6           0       -1.448968   -0.000047    0.000000
     10          6           0        1.428990    0.000003    0.000000
     11          6           0       -0.677014   -1.261902    0.000000
     12          6           0        0.731105   -1.237868    0.000000
     13          6           0       -0.677014    1.261908    0.000000
     14          6           0        0.731105    1.237874    0.000000
     15          1           0       -2.444296   -2.485868    0.000000
     16          1           0       -1.212438   -4.635600    0.000000
     17          1           0        1.271100   -4.608959    0.000000
     18          1           0        2.489910   -2.467847    0.000000
     19          1           0        2.510167    0.000003    0.000000
     20          1           0        2.489910    2.467853    0.000000
     21          1           0        1.271100    4.608965    0.000000
     22          1           0       -1.212438    4.635606    0.000000
     23          1           0       -2.444296    2.485874    0.000000
     24          1           0       -2.144786    0.000003    0.858485
     25          1           0       -2.144786    0.000003   -0.858485
 ---------------------------------------------------------------------

 SCF Done:  E(RM062X) =  -539.760163890     A.U. after   15 cycles

 Excitation energies and oscillator strengths:

 Excited State   1:      Singlet-A'     2.8224 eV  439.29 nm  f=0.0289  <S**2>=0.000
      47 -> 48         0.70426
 This state for optimization and/or second-order correction.
 Total Energy, E(TD-HF/TD-DFT) =  -539.656443950
 Copying the excited state density for this state as the 1-particle RhoCI density.

 The electronic state is 1-A'.
 Alpha  occ. eigenvalues --  -10.77656 -10.73215 -10.73214 -10.72427 -10.72426
 Alpha  occ. eigenvalues --  -10.71366 -10.71366 -10.71009 -10.71009 -10.70966
 Alpha  occ. eigenvalues --  -10.69971 -10.69971 -10.69623 -10.69623  -1.16468
 Alpha  occ. eigenvalues --   -1.12483  -1.06944  -1.05773  -1.01314  -1.00215
 Alpha  occ. eigenvalues --   -0.95778  -0.91066  -0.86422  -0.85911  -0.83824
 Alpha  occ. eigenvalues --   -0.78404  -0.76052  -0.74421  -0.69549  -0.69252
 Alpha  occ. eigenvalues --   -0.68513  -0.68203  -0.68095  -0.64745  -0.64295
 Alpha  occ. eigenvalues --   -0.63103  -0.61869  -0.59974  -0.59691  -0.59087
 Alpha  occ. eigenvalues --   -0.56910  -0.55207  -0.54859  -0.52435  -0.46641
 Alpha  occ. eigenvalues --   -0.46056  -0.44487
 Alpha virt. eigenvalues --   -0.26078  -0.14672  -0.14097  -0.12771  -0.11180
 Alpha virt. eigenvalues --   -0.10089  -0.09230  -0.07983  -0.07965  -0.07476
 Alpha virt. eigenvalues --   -0.07207  -0.07147  -0.05642  -0.05583  -0.05334

 Mulliken charges:
               1
     1  C    0.093508
     2  C   -0.406893
     3  C   -0.440152
     4  C    0.021160
     5  C    0.021182
     6  C   -0.440151
     7  C   -0.406862
     8  C    0.093554
     9  C   -0.323384
    10  C    0.098999
    11  C   -0.639208
    12  C    0.673655
    13  C   -0.639150
    14  C    0.673625
    15  H    0.237063
    16  H    0.256385
    17  H    0.248949
    18  H    0.221994
    19  H    0.190281
    20  H    0.221994
    21  H    0.248949
    22  H    0.256385
    23  H    0.237062
    24  H    0.250527
    25  H    0.250527
 Sum of Mulliken charges =   1.00000

 Dipole moment (field-independent basis, Debye):
    X=              0.1840    Y=              0.0000    Z=              0.0000  Tot=              0.1840
 Quadrupole moment (field-independent basis, Debye-Ang):
   XX=            -56.2563   YY=            -31.1391   ZZ=            -84.1409
   XY=             -0.0000   XZ=             -0.0000   YZ=              0.0000

 Normal termination of Gaussian 16 at Tue Aug  2 11:35:51 2022.
