 Gaussian 16, Revision C.01,
 Gaussian 16:  ES64L-G16RevC.01  3-Jul-2019

 ---------------------------------------------------------------
 #n M062X/6-311++G(d,p) TD(NStates=1) EmpiricalDispersion=GD3 SP
 ---------------------------------------------------------------

 ------
 SP_125
 ------
 Symbolic Z-matrix:
 Charge =  1 Multiplicity = 1

                         Standard orientation:
 ---------------------------------------------------------------------
 Center     Atomic      Atomic             Coordinates (Angstroms)
 Number     Number       Type             X           Y           Z
 ---------------------------------------------------------------------
      1          6           0       -2.366684   -1.552409    0.000000
      2          6           0       -2.318364   -2.942709    0.000000
      3          6           0       -1.086392   -3.591054    0.000000
      4          6           0        0.086310   -2.854309    0.000000
      5          6           0        2.384397    1.503515    0.000000
      6          6           0        2.353366    2.926503    0.000000
      7          6           0        1.147912    3.601906    0.000000
      8          6           0       -0.021220    2.853154    0.000000
      9          6           0       -1.284910    0.693247    0.000000
     10          6           0        1.250333   -0.693336    0.000000
     11          6           0       -1.199357   -0.796244    0.000000
     12          6           0        0.059962   -1.444711    0.000000
     13          6           0        0.000000    1.425283    0.000000
     14          6           0        1.219823    0.740267    0.000000
     15          1           0       -3.325282   -1.048437    0.000000
     16          1           0       -3.234791   -3.514604    0.000000
     17          1           0       -1.042333   -4.670724    0.000000
     18          1           0        1.043802   -3.358666    0.000000
     19          1           0        2.205482   -1.199397    0.000000
     20          1           0        3.345895    1.005622    0.000000
     21          1           0        3.289058    3.467877    0.000000
     22          1           0        1.112678    4.680611    0.000000
     23          1           0       -0.983968    3.349967    0.000000
     24          1           0       -1.880797    1.036557    0.861235
     25          1           0       -1.880797    1.036557   -0.861235
 ---------------------------------------------------------------------

 SCF Done:  E(RM062X) =  -539.758526760     A.U. after   15 cycles

 Excitation energies and oscillator strengths:

 Excited State   1:      Singlet-A'     2.7701 eV  447.58 nm  f=0.0243  <S**2>=0.000
      47 -> 48         0.70382
 This state for optimization and/or second-order correction.
 Total Energy, E(TD-HF/TD-DFT) =  -539.656727408
 Copying the excited state density for this state as the 1-particle RhoCI density.

 The electronic state is 1-A'.
 Alpha  occ. eigenvalues --  -10.77656 -10.73567 -10.72986 -10.72671 -10.72205
 Alpha  occ. eigenvalues --  -10.71639 -10.71523 -10.71092 -10.71001 -10.70494
 Alpha  occ. eigenvalues --  -10.70105 -10.69842 -10.69802 -10.69476  -1.16432
 Alpha  occ. eigenvalues --   -1.12443  -1.06943  -1.05703  -1.01305  -1.00208
 Alpha  occ. eigenvalues --   -0.95724  -0.91034  -0.86420  -0.85886  -0.83794
 Alpha  occ. eigenvalues --   -0.78375  -0.76025  -0.74399  -0.69644  -0.69260
 Alpha  occ. eigenvalues --   -0.68433  -0.68139  -0.68111  -0.64903  -0.64244
 Alpha  occ. eigenvalues --   -0.62907  -0.61782  -0.60215  -0.59500  -0.59121
 Alpha  occ. eigenvalues --   -0.56892  -0.55245  -0.54722  -0.52443  -0.46815
 Alpha  occ. eigenvalues --   -0.46090  -0.44287
 Alpha virt. eigenvalues --   -0.26107  -0.14665  -0.14094  -0.12773  -0.11180
 Alpha virt. eigenvalues --   -0.10083  -0.09238  -0.07976  -0.07966  -0.07477
 Alpha virt. eigenvalues --   -0.07200  -0.07140  -0.05646  -0.05577  -0.05335

 Mulliken charges:
               1
     1  C    0.080430
     2  C   -0.403282
     3  C   -0.436378
     4  C    0.014425
     5  C   -0.003336
     6  C   -0.442748
     7  C   -0.409436
     8  C    0.102735
     9  C   -0.351318
    10  C    0.081800
    11  C   -0.643073
    12  C    0.716635
    13  C   -0.615329
    14  C    0.690271
    15  H    0.238923
    16  H    0.258453
    17  H    0.250596
    18  H    0.223896
    19  H    0.190340
    20  H    0.220287
    21  H    0.247019
    22  H    0.253922
    23  H    0.236357
    24  H    0.249405
    25  H    0.249405
 Sum of Mulliken charges =   1.00000

 Dipole moment (field-independent basis, Debye):
    X=             -0.0967    Y=             -0.5829    Z=             -0.0000  Tot=              0.5909
 Quadrupole moment (field-independent basis, Debye-Ang):
   XX=            -50.9360   YY=            -36.3934   ZZ=            -84.1403
   XY=             10.3094   XZ=              0.0000   YZ=             -0.0000

 Normal termination of Gaussian 16 at Tue Aug  2 13:19:04 2022.
