 Gaussian 16, Revision C.01,
 Gaussian 16:  ES64L-G16RevC.01  3-Jul-2019

 ---------------------------------------------------------------
 #n M062X/6-311++G(d,p) TD(NStates=1) EmpiricalDispersion=GD3 SP
 ---------------------------------------------------------------

 ------
 SP_125
 ------
 Symbolic Z-matrix:
 Charge =  1 Multiplicity = 1

                         Standard orientation:
 ---------------------------------------------------------------------
 Center     Atomic      Atomic             Coordinates (Angstroms)
 Number     Number       Type             X           Y           Z
 ---------------------------------------------------------------------
      1          6           0       -2.358158   -1.547936    0.000000
      2          6           0       -2.300413   -2.939685    0.000000
      3          6           0       -1.067948   -3.594612    0.000000
      4          6           0        0.093950   -2.867718    0.000000
      5          6           0        2.368746    1.502219    0.000000
      6          6           0        2.338263    2.939621    0.000000
      7          6           0        1.139095    3.617459    0.000000
      8          6           0       -0.024509    2.860672    0.000000
      9          6           0       -1.280839    0.693942    0.000000
     10          6           0        1.243289   -0.706484    0.000000
     11          6           0       -1.203709   -0.799207    0.000000
     12          6           0        0.060879   -1.452216    0.000000
     13          6           0        0.000000    1.419818    0.000000
     14          6           0        1.213835    0.737094    0.000000
     15          1           0       -3.321202   -1.052553    0.000000
     16          1           0       -3.216361   -3.513061    0.000000
     17          1           0       -1.032548   -4.674744    0.000000
     18          1           0        1.055367   -3.364316    0.000000
     19          1           0        2.200461   -1.208876    0.000000
     20          1           0        3.334764    1.012450    0.000000
     21          1           0        3.278397    3.474196    0.000000
     22          1           0        1.101699    4.695756    0.000000
     23          1           0       -0.992092    3.348594    0.000000
     24          1           0       -1.871687    1.052367    0.860410
     25          1           0       -1.871687    1.052367   -0.860410
 ---------------------------------------------------------------------

 SCF Done:  E(RM062X) =  -539.754934764     A.U. after   15 cycles

 Excitation energies and oscillator strengths:

 Excited State   1:      Singlet-A'     2.6861 eV  461.57 nm  f=0.0204  <S**2>=0.000
      47 -> 48         0.70355
 This state for optimization and/or second-order correction.
 Total Energy, E(TD-HF/TD-DFT) =  -539.656221617
 Copying the excited state density for this state as the 1-particle RhoCI density.

 The electronic state is 1-A'.
 Alpha  occ. eigenvalues --  -10.77601 -10.73754 -10.72814 -10.72745 -10.72002
 Alpha  occ. eigenvalues --  -10.71932 -10.71824 -10.70993 -10.70871 -10.70202
 Alpha  occ. eigenvalues --  -10.70136 -10.69917 -10.69746 -10.69348  -1.16509
 Alpha  occ. eigenvalues --   -1.12460  -1.06939  -1.05806  -1.01290  -1.00360
 Alpha  occ. eigenvalues --   -0.95603  -0.91027  -0.86436  -0.85888  -0.83778
 Alpha  occ. eigenvalues --   -0.78342  -0.76107  -0.74373  -0.69755  -0.69306
 Alpha  occ. eigenvalues --   -0.68334  -0.68098  -0.68078  -0.65183  -0.64232
 Alpha  occ. eigenvalues --   -0.62774  -0.61628  -0.60413  -0.59305  -0.59155
 Alpha  occ. eigenvalues --   -0.56928  -0.55263  -0.54582  -0.52442  -0.47192
 Alpha  occ. eigenvalues --   -0.46119  -0.43903
 Alpha virt. eigenvalues --   -0.26108  -0.14665  -0.14081  -0.12764  -0.11188
 Alpha virt. eigenvalues --   -0.10090  -0.09254  -0.07964  -0.07937  -0.07482
 Alpha virt. eigenvalues --   -0.07208  -0.07136  -0.05647  -0.05574  -0.05348

 Mulliken charges:
               1
     1  C    0.073511
     2  C   -0.401557
     3  C   -0.433348
     4  C    0.024718
     5  C   -0.006845
     6  C   -0.444105
     7  C   -0.412558
     8  C    0.113167
     9  C   -0.347691
    10  C    0.081568
    11  C   -0.652428
    12  C    0.718673
    13  C   -0.604279
    14  C    0.671960
    15  H    0.239815
    16  H    0.260184
    17  H    0.251979
    18  H    0.225306
    19  H    0.189752
    20  H    0.218976
    21  H    0.245733
    22  H    0.252297
    23  H    0.235373
    24  H    0.249900
    25  H    0.249900
 Sum of Mulliken charges =   1.00000

 Dipole moment (field-independent basis, Debye):
    X=             -0.3007    Y=             -0.9461    Z=              0.0000  Tot=              0.9927
 Quadrupole moment (field-independent basis, Debye-Ang):
   XX=            -51.1507   YY=            -36.1392   ZZ=            -84.1337
   XY=             10.1784   XZ=              0.0000   YZ=              0.0000

 Normal termination of Gaussian 16 at Tue Aug  2 13:15:47 2022.
