 Gaussian 16, Revision C.01,
 Gaussian 16:  ES64L-G16RevC.01  3-Jul-2019

 ---------------------------------------------------------------
 #n M062X/6-311++G(d,p) TD(NStates=1) EmpiricalDispersion=GD3 SP
 ---------------------------------------------------------------

 -----
 SP_75
 -----
 Symbolic Z-matrix:
 Charge =  1 Multiplicity = 1

                         Standard orientation:
 ---------------------------------------------------------------------
 Center     Atomic      Atomic             Coordinates (Angstroms)
 Number     Number       Type             X           Y           Z
 ---------------------------------------------------------------------
      1          6           0       -2.352147   -1.542959    0.000000
      2          6           0       -2.288344   -2.936609    0.000000
      3          6           0       -1.056268   -3.595940    0.000000
      4          6           0        0.098939   -2.876462    0.000000
      5          6           0        2.358111    1.501310    0.000000
      6          6           0        2.327020    2.948259    0.000000
      7          6           0        1.132447    3.627135    0.000000
      8          6           0       -0.028121    2.864286    0.000000
      9          6           0       -1.274255    0.692334    0.000000
     10          6           0        1.238456   -0.715184    0.000000
     11          6           0       -1.206494   -0.801079    0.000000
     12          6           0        0.061585   -1.457713    0.000000
     13          6           0        0.000000    1.416025    0.000000
     14          6           0        1.210316    0.735174    0.000000
     15          1           0       -3.318036   -1.053019    0.000000
     16          1           0       -3.204235   -3.510605    0.000000
     17          1           0       -1.027006   -4.676558    0.000000
     18          1           0        1.062808   -3.368261    0.000000
     19          1           0        2.197056   -1.215177    0.000000
     20          1           0        3.327351    1.017294    0.000000
     21          1           0        3.270060    3.478693    0.000000
     22          1           0        1.093169    4.705167    0.000000
     23          1           0       -0.999088    3.346031    0.000000
     24          1           0       -1.864773    1.062482    0.858760
     25          1           0       -1.864773    1.062482   -0.858760
 ---------------------------------------------------------------------

 SCF Done:  E(RM062X) =  -539.751332323     A.U. after   16 cycles

 Excitation energies and oscillator strengths:

 Excited State   1:      Singlet-A'     2.6229 eV  472.70 nm  f=0.0185  <S**2>=0.000
      47 -> 48         0.70343
 This state for optimization and/or second-order correction.
 Total Energy, E(TD-HF/TD-DFT) =  -539.654942680
 Copying the excited state density for this state as the 1-particle RhoCI density.

 The electronic state is 1-A'.
 Alpha  occ. eigenvalues --  -10.77541 -10.73845 -10.72893 -10.72562 -10.72212
 Alpha  occ. eigenvalues --  -10.71940 -10.71852 -10.70976 -10.70717 -10.70263
 Alpha  occ. eigenvalues --  -10.69986 -10.69912 -10.69681 -10.69255  -1.16602
 Alpha  occ. eigenvalues --   -1.12491  -1.06935  -1.05938  -1.01277  -1.00517
 Alpha  occ. eigenvalues --   -0.95496  -0.91027  -0.86453  -0.85897  -0.83770
 Alpha  occ. eigenvalues --   -0.78314  -0.76199  -0.74356  -0.69844  -0.69348
 Alpha  occ. eigenvalues --   -0.68259  -0.68081  -0.68037  -0.65407  -0.64237
 Alpha  occ. eigenvalues --   -0.62695  -0.61506  -0.60542  -0.59180  -0.59164
 Alpha  occ. eigenvalues --   -0.56966  -0.55268  -0.54473  -0.52438  -0.47503
 Alpha  occ. eigenvalues --   -0.46131  -0.43602
 Alpha virt. eigenvalues --   -0.26102  -0.14668  -0.14069  -0.12753  -0.11197
 Alpha virt. eigenvalues --   -0.10100  -0.09269  -0.07953  -0.07907  -0.07488
 Alpha virt. eigenvalues --   -0.07219  -0.07134  -0.05646  -0.05573  -0.05362

 Mulliken charges:
               1
     1  C    0.068964
     2  C   -0.400507
     3  C   -0.431622
     4  C    0.038233
     5  C   -0.004359
     6  C   -0.444282
     7  C   -0.415293
     8  C    0.122166
     9  C   -0.336163
    10  C    0.086098
    11  C   -0.659243
    12  C    0.710620
    13  C   -0.601579
    14  C    0.646681
    15  H    0.240218
    16  H    0.261381
    17  H    0.252957
    18  H    0.226308
    19  H    0.189069
    20  H    0.218031
    21  H    0.244932
    22  H    0.251314
    23  H    0.234557
    24  H    0.250761
    25  H    0.250761
 Sum of Mulliken charges =   1.00000

 Dipole moment (field-independent basis, Debye):
    X=             -0.4400    Y=             -1.1832    Z=             -0.0000  Tot=              1.2623
 Quadrupole moment (field-independent basis, Debye-Ang):
   XX=            -51.2917   YY=            -35.9736   ZZ=            -84.1267
   XY=             10.0860   XZ=              0.0000   YZ=             -0.0000

 Normal termination of Gaussian 16 at Tue Aug  2 12:42:31 2022.
