 Gaussian 16, Revision C.01,
 Gaussian 16:  ES64L-G16RevC.01  3-Jul-2019

 ---------------------------------------------------------------
 #n M062X/6-311++G(d,p) TD(NStates=1) EmpiricalDispersion=GD3 SP
 ---------------------------------------------------------------

 ----
 SP_0
 ----
 Symbolic Z-matrix:
 Charge =  1 Multiplicity = 1

                         Standard orientation:
 ---------------------------------------------------------------------
 Center     Atomic      Atomic             Coordinates (Angstroms)
 Number     Number       Type             X           Y           Z
 ---------------------------------------------------------------------
      1          6           0       -2.371516   -1.550395    0.000000
      2          6           0       -2.330087   -2.942099    0.000000
      3          6           0       -1.100286   -3.586101    0.000000
      4          6           0        0.080848   -2.844899    0.000000
      5          6           0        2.394338    1.504286    0.000000
      6          6           0        2.360591    2.917511    0.000000
      7          6           0        1.151977    3.589812    0.000000
      8          6           0       -0.022516    2.844667    0.000000
      9          6           0       -1.277960    0.687551    0.000000
     10          6           0        1.254615   -0.684391    0.000000
     11          6           0       -1.196183   -0.793968    0.000000
     12          6           0        0.059523   -1.440942    0.000000
     13          6           0        0.000000    1.428548    0.000000
     14          6           0        1.224989    0.742864    0.000000
     15          1           0       -3.326871   -1.039959    0.000000
     16          1           0       -3.247497   -3.512066    0.000000
     17          1           0       -1.051393   -4.665860    0.000000
     18          1           0        1.035329   -3.355390    0.000000
     19          1           0        2.208612   -1.193042    0.000000
     20          1           0        3.353369    1.001781    0.000000
     21          1           0        3.293165    3.464360    0.000000
     22          1           0        1.117102    4.668819    0.000000
     23          1           0       -0.982465    3.346823    0.000000
     24          1           0       -1.884679    1.024934    0.859035
     25          1           0       -1.884679    1.024934   -0.859035
 ---------------------------------------------------------------------

 SCF Done:  E(RM062X) =  -539.759746346     A.U. after   15 cycles

 Excitation energies and oscillator strengths:

 Excited State   1:      Singlet-A'     2.8086 eV  441.45 nm  f=0.0276  <S**2>=0.000
      47 -> 48         0.70410
 This state for optimization and/or second-order correction.
 Total Energy, E(TD-HF/TD-DFT) =  -539.656533729
 Copying the excited state density for this state as the 1-particle RhoCI density.

 The electronic state is 1-A'.
 Alpha  occ. eigenvalues --  -10.77656 -10.73370 -10.73082 -10.72545 -10.72312
 Alpha  occ. eigenvalues --  -10.71503 -10.71267 -10.71228 -10.70972 -10.70752
 Alpha  occ. eigenvalues --  -10.70037 -10.69907 -10.69708 -10.69544  -1.16462
 Alpha  occ. eigenvalues --   -1.12475  -1.06944  -1.05760  -1.01312  -1.00217
 Alpha  occ. eigenvalues --   -0.95764  -0.91059  -0.86422  -0.85906  -0.83817
 Alpha  occ. eigenvalues --   -0.78397  -0.76048  -0.74416  -0.69573  -0.69254
 Alpha  occ. eigenvalues --   -0.68493  -0.68188  -0.68097  -0.64791  -0.64281
 Alpha  occ. eigenvalues --   -0.63054  -0.61849  -0.60051  -0.59624  -0.59095
 Alpha  occ. eigenvalues --   -0.56907  -0.55219  -0.54824  -0.52436  -0.46688
 Alpha  occ. eigenvalues --   -0.46066  -0.44432
 Alpha virt. eigenvalues --   -0.26084  -0.14670  -0.14096  -0.12772  -0.11180
 Alpha virt. eigenvalues --   -0.10088  -0.09232  -0.07981  -0.07964  -0.07477
 Alpha virt. eigenvalues --   -0.07205  -0.07145  -0.05642  -0.05582  -0.05335

 Mulliken charges:
               1
     1  C    0.087076
     2  C   -0.405410
     3  C   -0.438555
     4  C    0.022724
     5  C    0.012952
     6  C   -0.441339
     7  C   -0.408648
     8  C    0.099154
     9  C   -0.329113
    10  C    0.095628
    11  C   -0.643890
    12  C    0.688553
    13  C   -0.632297
    14  C    0.673387
    15  H    0.237840
    16  H    0.257472
    17  H    0.249822
    18  H    0.222950
    19  H    0.190274
    20  H    0.221070
    21  H    0.248024
    22  H    0.255214
    23  H    0.236546
    24  H    0.250284
    25  H    0.250284
 Sum of Mulliken charges =   1.00000

 Dipole moment (field-independent basis, Debye):
    X=              0.0309    Y=             -0.3341    Z=             -0.0000  Tot=              0.3355
 Quadrupole moment (field-independent basis, Debye-Ang):
   XX=            -50.7902   YY=            -36.5907   ZZ=            -84.1406
   XY=             10.3744   XZ=              0.0000   YZ=             -0.0000

 Normal termination of Gaussian 16 at Tue Aug  2 12:04:39 2022.
