 Gaussian 16, Revision C.01,
 Gaussian 16:  ES64L-G16RevC.01  3-Jul-2019

 ---------------------------------------------------------------
 #n M062X/6-311++G(d,p) TD(NStates=1) EmpiricalDispersion=GD3 SP
 ---------------------------------------------------------------

 -------
 SP_-100
 -------
 Symbolic Z-matrix:
 Charge =  1 Multiplicity = 1

                         Standard orientation:
 ---------------------------------------------------------------------
 Center     Atomic      Atomic             Coordinates (Angstroms)
 Number     Number       Type             X           Y           Z
 ---------------------------------------------------------------------
      1          6           0        0.026310    2.862480    0.000000
      2          6           0       -1.135779    3.622298    0.000000
      3          6           0       -2.332648    2.943941    0.000000
      4          6           0       -2.363429    1.501766    0.000000
      5          6           0       -0.096437   -2.872091    0.000000
      6          6           0        1.062112   -3.595278    0.000000
      7          6           0        2.294380   -2.938149    0.000000
      8          6           0        2.355151   -1.545447    0.000000
      9          6           0        1.277546    0.693136    0.000000
     10          6           0       -1.240867   -0.710833    0.000000
     11          6           0        0.000000    1.417921    0.000000
     12          6           0       -1.212075    0.736134    0.000000
     13          6           0        1.205103   -0.800140    0.000000
     14          6           0       -0.061228   -1.454964    0.000000
     15          1           0        0.995587    3.347315    0.000000
     16          1           0       -1.097443    4.700462    0.000000
     17          1           0       -3.274233    3.476443    0.000000
     18          1           0       -3.331059    1.014871    0.000000
     19          1           0       -2.198754   -1.212027    0.000000
     20          1           0       -1.059082   -3.366291    0.000000
     21          1           0        1.029782   -4.675651    0.000000
     22          1           0        3.210300   -3.511833    0.000000
     23          1           0        3.319619   -1.052783    0.000000
     24          1           0        1.868224    1.057423    0.859585
     25          1           0        1.868224    1.057423   -0.859585
 ---------------------------------------------------------------------

 SCF Done:  E(RM062X) =  -539.753257887     A.U. after   16 cycles

 Excitation energies and oscillator strengths:

 Excited State   1:      Singlet-A'     2.6550 eV  466.98 nm  f=0.0194  <S**2>=0.000
      47 -> 48         0.70348
 This state for optimization and/or second-order correction.
 Total Energy, E(TD-HF/TD-DFT) =  -539.655688423
 Copying the excited state density for this state as the 1-particle RhoCI density.

 The electronic state is 1-A'.
 Alpha  occ. eigenvalues --  -10.77573 -10.73800 -10.72854 -10.72653 -10.72072
 Alpha  occ. eigenvalues --  -10.71927 -10.71883 -10.70984 -10.70794 -10.70233
 Alpha  occ. eigenvalues --  -10.70023 -10.69952 -10.69714 -10.69302  -1.16554
 Alpha  occ. eigenvalues --   -1.12475  -1.06937  -1.05870  -1.01284  -1.00436
 Alpha  occ. eigenvalues --   -0.95551  -0.91027  -0.86444  -0.85892  -0.83775
 Alpha  occ. eigenvalues --   -0.78329  -0.76152  -0.74364  -0.69797  -0.69326
 Alpha  occ. eigenvalues --   -0.68298  -0.68089  -0.68058  -0.65294  -0.64234
 Alpha  occ. eigenvalues --   -0.62736  -0.61568  -0.60476  -0.59235  -0.59167
 Alpha  occ. eigenvalues --   -0.56947  -0.55266  -0.54530  -0.52440  -0.47345
 Alpha  occ. eigenvalues --   -0.46125  -0.43755
 Alpha virt. eigenvalues --   -0.26105  -0.14667  -0.14075  -0.12759  -0.11192
 Alpha virt. eigenvalues --   -0.10095  -0.09261  -0.07959  -0.07923  -0.07485
 Alpha virt. eigenvalues --   -0.07213  -0.07135  -0.05646  -0.05574  -0.05355

 Mulliken charges:
               1
     1  C    0.117672
     2  C   -0.413945
     3  C   -0.444254
     4  C   -0.005601
     5  C    0.031398
     6  C   -0.432473
     7  C   -0.401094
     8  C    0.071370
     9  C   -0.341833
    10  C    0.084002
    11  C   -0.603071
    12  C    0.659580
    13  C   -0.656180
    14  C    0.714684
    15  H    0.234962
    16  H    0.251803
    17  H    0.245332
    18  H    0.218503
    19  H    0.189427
    20  H    0.225800
    21  H    0.252469
    22  H    0.260785
    23  H    0.240018
    24  H    0.250322
    25  H    0.250322
 Sum of Mulliken charges =   1.00000

 Dipole moment (field-independent basis, Debye):
    X=              0.3703    Y=             -1.0650    Z=             -0.0000  Tot=              1.1276
 Quadrupole moment (field-independent basis, Debye-Ang):
   XX=            -51.2214   YY=            -36.0576   ZZ=            -84.1304
   XY=            -10.1315   XZ=             -0.0000   YZ=              0.0000

 Normal termination of Gaussian 16 at Tue Aug  2 11:13:40 2022.
