 Gaussian 16, Revision C.01,
 Gaussian 16:  ES64L-G16RevC.01  3-Jul-2019

 ---------------------------------------------------------------
 #n M062X/6-311++G(d,p) TD(NStates=1) EmpiricalDispersion=GD3 SP
 ---------------------------------------------------------------

 ------
 SP_-25
 ------
 Symbolic Z-matrix:
 Charge =  1 Multiplicity = 1

                         Standard orientation:
 ---------------------------------------------------------------------
 Center     Atomic      Atomic             Coordinates (Angstroms)
 Number     Number       Type             X           Y           Z
 ---------------------------------------------------------------------
      1          6           0        0.021829    2.845362    0.000000
      2          6           0       -1.152324    3.590157    0.000000
      3          6           0       -2.361148    2.917559    0.000000
      4          6           0       -2.394436    1.504302    0.000000
      5          6           0       -0.080935   -2.844991    0.000000
      6          6           0        1.099958   -3.586611    0.000000
      7          6           0        2.330133   -2.942622    0.000000
      8          6           0        2.371687   -1.551396    0.000000
      9          6           0        1.279896    0.688597    0.000000
     10          6           0       -1.254708   -0.684428    0.000000
     11          6           0        0.000000    1.428625    0.000000
     12          6           0       -1.224755    0.742768    0.000000
     13          6           0        1.196235   -0.794034    0.000000
     14          6           0       -0.059496   -1.440695    0.000000
     15          1           0        0.981689    3.347631    0.000000
     16          1           0       -1.117663    4.669158    0.000000
     17          1           0       -3.293756    3.464225    0.000000
     18          1           0       -3.353355    1.001640    0.000000
     19          1           0       -2.208665   -1.193048    0.000000
     20          1           0       -1.035493   -3.355286    0.000000
     21          1           0        1.050874   -4.666296    0.000000
     22          1           0        3.247408   -3.512779    0.000000
     23          1           0        3.327095   -1.041111    0.000000
     24          1           0        1.885130    1.025153    0.859585
     25          1           0        1.885130    1.025153   -0.859585
 ---------------------------------------------------------------------

 SCF Done:  E(RM062X) =  -539.759777642     A.U. after   15 cycles

 Excitation energies and oscillator strengths:

 Excited State   1:      Singlet-A'     2.8087 eV  441.44 nm  f=0.0275  <S**2>=0.000
      47 -> 48         0.70410
 This state for optimization and/or second-order correction.
 Total Energy, E(TD-HF/TD-DFT) =  -539.656561241
 Copying the excited state density for this state as the 1-particle RhoCI density.

 The electronic state is 1-A'.
 Alpha  occ. eigenvalues --  -10.77660 -10.73384 -10.73095 -10.72550 -10.72316
 Alpha  occ. eigenvalues --  -10.71504 -10.71265 -10.71230 -10.70979 -10.70750
 Alpha  occ. eigenvalues --  -10.70038 -10.69907 -10.69712 -10.69547  -1.16450
 Alpha  occ. eigenvalues --   -1.12466  -1.06944  -1.05739  -1.01311  -1.00202
 Alpha  occ. eigenvalues --   -0.95766  -0.91054  -0.86420  -0.85901  -0.83813
 Alpha  occ. eigenvalues --   -0.78395  -0.76036  -0.74414  -0.69579  -0.69251
 Alpha  occ. eigenvalues --   -0.68489  -0.68183  -0.68101  -0.64788  -0.64276
 Alpha  occ. eigenvalues --   -0.63035  -0.61848  -0.60063  -0.59621  -0.59098
 Alpha  occ. eigenvalues --   -0.56900  -0.55222  -0.54815  -0.52438  -0.46680
 Alpha  occ. eigenvalues --   -0.46067  -0.44439
 Alpha virt. eigenvalues --   -0.26089  -0.14669  -0.14096  -0.12773  -0.11179
 Alpha virt. eigenvalues --   -0.10087  -0.09232  -0.07981  -0.07967  -0.07476
 Alpha virt. eigenvalues --   -0.07204  -0.07144  -0.05643  -0.05581  -0.05334

 Mulliken charges:
               1
     1  C    0.098796
     2  C   -0.408533
     3  C   -0.441372
     4  C    0.009908
     5  C    0.019463
     6  C   -0.438483
     7  C   -0.405335
     8  C    0.086935
     9  C   -0.334372
    10  C    0.092727
    11  C   -0.630558
    12  C    0.679667
    13  C   -0.642658
    14  C    0.694349
    15  H    0.236655
    16  H    0.255173
    17  H    0.247994
    18  H    0.221089
    19  H    0.190335
    20  H    0.222951
    21  H    0.249791
    22  H    0.257433
    23  H    0.237948
    24  H    0.250047
    25  H    0.250047
 Sum of Mulliken charges =   1.00000

 Dipole moment (field-independent basis, Debye):
    X=             -0.0325    Y=             -0.3350    Z=             -0.0000  Tot=              0.3366
 Quadrupole moment (field-independent basis, Debye-Ang):
   XX=            -50.7902   YY=            -36.5824   ZZ=            -84.1410
   XY=            -10.3805   XZ=             -0.0000   YZ=             -0.0000

 Normal termination of Gaussian 16 at Tue Aug  2 11:53:29 2022.
