 Gaussian 16, Revision C.01,
 Gaussian 16:  ES64L-G16RevC.01  3-Jul-2019

 ---------------------------------------------------------------
 #n M062X/6-311++G(d,p) TD(NStates=1) EmpiricalDispersion=GD3 SP
 ---------------------------------------------------------------

 ------
 SP_-50
 ------
 Symbolic Z-matrix:
 Charge =  1 Multiplicity = 1

                         Standard orientation:
 ---------------------------------------------------------------------
 Center     Atomic      Atomic             Coordinates (Angstroms)
 Number     Number       Type             X           Y           Z
 ---------------------------------------------------------------------
      1          6           0       -2.365496   -1.545404    0.000000
      2          6           0       -2.318047   -2.939054    0.000000
      3          6           0       -1.088697   -3.587484    0.000000
      4          6           0        0.085697   -2.853668    0.000000
      5          6           0        2.383711    1.503403    0.000000
      6          6           0        2.349470    2.926163    0.000000
      7          6           0        1.145488    3.599487    0.000000
      8          6           0       -0.026022    2.848280    0.000000
      9          6           0       -1.271348    0.685942    0.000000
     10          6           0        1.249683   -0.693072    0.000000
     11          6           0       -1.198994   -0.795784    0.000000
     12          6           0        0.060155   -1.446435    0.000000
     13          6           0        0.000000    1.424745    0.000000
     14          6           0        1.221459    0.740946    0.000000
     15          1           0       -3.323727   -1.040368    0.000000
     16          1           0       -3.235415   -3.509620    0.000000
     17          1           0       -1.045968   -4.667672    0.000000
     18          1           0        1.042657   -3.359399    0.000000
     19          1           0        2.205111   -1.199354    0.000000
     20          1           0        3.345993    1.006607    0.000000
     21          1           0        3.284915    3.468821    0.000000
     22          1           0        1.108753    4.678234    0.000000
     23          1           0       -0.989388    3.344304    0.000000
     24          1           0       -1.877638    1.035032    0.857385
     25          1           0       -1.877638    1.035032   -0.857385
 ---------------------------------------------------------------------

 SCF Done:  E(RM062X) =  -539.758293437     A.U. after   15 cycles

 Excitation energies and oscillator strengths:

 Excited State   1:      Singlet-A'     2.7712 eV  447.40 nm  f=0.0253  <S**2>=0.000
      47 -> 48         0.70380
 This state for optimization and/or second-order correction.
 Total Energy, E(TD-HF/TD-DFT) =  -539.656453375
 Copying the excited state density for this state as the 1-particle RhoCI density.

 The electronic state is 1-A'.
 Alpha  occ. eigenvalues --  -10.77624 -10.73471 -10.72898 -10.72640 -10.72173
 Alpha  occ. eigenvalues --  -10.71631 -10.71538 -10.71081 -10.70953 -10.70509
 Alpha  occ. eigenvalues --  -10.70100 -10.69842 -10.69780 -10.69450  -1.16522
 Alpha  occ. eigenvalues --   -1.12502  -1.06942  -1.05849  -1.01307  -1.00311
 Alpha  occ. eigenvalues --   -0.95714  -0.91070  -0.86432  -0.85918  -0.83822
 Alpha  occ. eigenvalues --   -0.78390  -0.76108  -0.74409  -0.69609  -0.69279
 Alpha  occ. eigenvalues --   -0.68462  -0.68174  -0.68085  -0.64933  -0.64281
 Alpha  occ. eigenvalues --   -0.63022  -0.61802  -0.60152  -0.59503  -0.59103
 Alpha  occ. eigenvalues --   -0.56936  -0.55232  -0.54778  -0.52432  -0.46864
 Alpha  occ. eigenvalues --   -0.46084  -0.44246
 Alpha virt. eigenvalues --   -0.26073  -0.14674  -0.14090  -0.12766  -0.11185
 Alpha virt. eigenvalues --   -0.10095  -0.09238  -0.07977  -0.07947  -0.07480
 Alpha virt. eigenvalues --   -0.07213  -0.07147  -0.05641  -0.05583  -0.05342

 Mulliken charges:
               1
     1  C    0.080857
     2  C   -0.403639
     3  C   -0.437227
     4  C    0.037840
     5  C    0.017027
     6  C   -0.442153
     7  C   -0.410427
     8  C    0.106049
     9  C   -0.314729
    10  C    0.102187
    11  C   -0.650249
    12  C    0.678199
    13  C   -0.629750
    14  C    0.645210
    15  H    0.238179
    16  H    0.258712
    17  H    0.250810
    18  H    0.223944
    19  H    0.189905
    20  H    0.220091
    21  H    0.247219
    22  H    0.254216
    23  H    0.235597
    24  H    0.251066
    25  H    0.251066
 Sum of Mulliken charges =   1.00000

 Dipole moment (field-independent basis, Debye):
    X=             -0.1075    Y=             -0.5763    Z=             -0.0000  Tot=              0.5862
 Quadrupole moment (field-independent basis, Debye-Ang):
   XX=            -50.9357   YY=            -36.4519   ZZ=            -84.1370
   XY=             10.2668   XZ=              0.0000   YZ=             -0.0000

 Normal termination of Gaussian 16 at Tue Aug  2 11:31:29 2022.
