 Gaussian 16, Revision C.01,
 Gaussian 16:  ES64L-G16RevC.01  3-Jul-2019

 ---------------------------------------------------------------
 #n M062X/6-311++G(d,p) TD(NStates=1) EmpiricalDispersion=GD3 SP
 ---------------------------------------------------------------

 ------
 SP_-50
 ------
 Symbolic Z-matrix:
 Charge =  1 Multiplicity = 1

                         Standard orientation:
 ---------------------------------------------------------------------
 Center     Atomic      Atomic             Coordinates (Angstroms)
 Number     Number       Type             X           Y           Z
 ---------------------------------------------------------------------
      1          6           0        2.492815   -1.350548    0.000000
      2          6           0        3.699165   -0.654650    0.000000
      3          6           0        3.678915    0.731619    0.000000
      4          6           0        2.460892    1.420234    0.000000
      5          6           0       -2.465104    1.394353    0.000000
      6          6           0       -3.687211    0.693521    0.000000
      7          6           0       -3.701391   -0.690223    0.000000
      8          6           0       -2.487700   -1.371815    0.000000
      9          6           0        0.004233   -1.447863    0.000000
     10          6           0        0.000000    1.428954    0.000000
     11          6           0        1.265796   -0.673439    0.000000
     12          6           0        1.237380    0.736846    0.000000
     13          6           0       -1.257932   -0.680542    0.000000
     14          6           0       -1.238537    0.725524    0.000000
     15          1           0        2.494921   -2.433790    0.000000
     16          1           0        4.636442   -1.191121    0.000000
     17          1           0        4.604154    1.290625    0.000000
     18          1           0        2.459023    2.502757    0.000000
     19          1           0       -0.005157    2.510144    0.000000
     20          1           0       -2.476761    2.476958    0.000000
     21          1           0       -4.613534    1.250934    0.000000
     22          1           0       -4.634089   -1.234142    0.000000
     23          1           0       -2.475675   -2.455089    0.000000
     24          1           0        0.001375   -2.144550    0.858210
     25          1           0        0.001375   -2.144550   -0.858210
 ---------------------------------------------------------------------

 SCF Done:  E(RM062X) =  -539.760031943     A.U. after   15 cycles

 Excitation energies and oscillator strengths:

 Excited State   1:      Singlet-A'     2.8187 eV  439.86 nm  f=0.0286  <S**2>=0.000
      47 -> 48         0.70422
 This state for optimization and/or second-order correction.
 Total Energy, E(TD-HF/TD-DFT) =  -539.656446677
 Copying the excited state density for this state as the 1-particle RhoCI density.

 The electronic state is 1-A'.
 Alpha  occ. eigenvalues --  -10.77653 -10.73279 -10.73136 -10.72482 -10.72365
 Alpha  occ. eigenvalues --  -10.71434 -10.71296 -10.71139 -10.70962 -10.70882
 Alpha  occ. eigenvalues --  -10.70004 -10.69939 -10.69662 -10.69580  -1.16476
 Alpha  occ. eigenvalues --   -1.12487  -1.06944  -1.05785  -1.01314  -1.00227
 Alpha  occ. eigenvalues --   -0.95774  -0.91069  -0.86423  -0.85914  -0.83826
 Alpha  occ. eigenvalues --   -0.78404  -0.76060  -0.74421  -0.69551  -0.69255
 Alpha  occ. eigenvalues --   -0.68511  -0.68203  -0.68093  -0.64759  -0.64296
 Alpha  occ. eigenvalues --   -0.63105  -0.61865  -0.59986  -0.59675  -0.59086
 Alpha  occ. eigenvalues --   -0.56914  -0.55208  -0.54857  -0.52434  -0.46658
 Alpha  occ. eigenvalues --   -0.46059  -0.44467
 Alpha virt. eigenvalues --   -0.26076  -0.14672  -0.14096  -0.12771  -0.11181
 Alpha virt. eigenvalues --   -0.10090  -0.09230  -0.07983  -0.07963  -0.07477
 Alpha virt. eigenvalues --   -0.07208  -0.07148  -0.05641  -0.05583  -0.05335

 Mulliken charges:
               1
     1  C    0.090476
     2  C   -0.406050
     3  C   -0.439476
     4  C    0.025364
     5  C    0.020235
     6  C   -0.440785
     7  C   -0.407699
     8  C    0.096626
     9  C   -0.320857
    10  C    0.100223
    11  C   -0.642336
    12  C    0.674432
    13  C   -0.636857
    14  C    0.666421
    15  H    0.237332
    16  H    0.256971
    17  H    0.249413
    18  H    0.222470
    19  H    0.190236
    20  H    0.221516
    21  H    0.248516
    22  H    0.255841
    23  H    0.236685
    24  H    0.250652
    25  H    0.250652
 Sum of Mulliken charges =   1.00000

 Dipole moment (field-independent basis, Debye):
    X=              0.1392    Y=              0.1834    Z=             -0.0000  Tot=              0.2302
 Quadrupole moment (field-independent basis, Debye-Ang):
   XX=            -31.1441   YY=            -56.2539   ZZ=            -84.1405
   XY=              0.1766   XZ=             -0.0000   YZ=              0.0000

 Normal termination of Gaussian 16 at Tue Aug  2 11:34:46 2022.
