 Gaussian 16, Revision C.01,
 Gaussian 16:  ES64L-G16RevC.01  3-Jul-2019

 ---------------------------------------------------------------
 #n M062X/6-311++G(d,p) TD(NStates=1) EmpiricalDispersion=GD3 SP
 ---------------------------------------------------------------

 -----
 SP_50
 -----
 Symbolic Z-matrix:
 Charge =  1 Multiplicity = 1

                         Standard orientation:
 ---------------------------------------------------------------------
 Center     Atomic      Atomic             Coordinates (Angstroms)
 Number     Number       Type             X           Y           Z
 ---------------------------------------------------------------------
      1          6           0       -2.360495   -1.546423    0.000000
      2          6           0       -2.306266   -2.939130    0.000000
      3          6           0       -1.075095   -3.591903    0.000000
      4          6           0        0.091127   -2.862976    0.000000
      5          6           0        2.373669    1.502606    0.000000
      6          6           0        2.341639    2.935102    0.000000
      7          6           0        1.141012    3.611236    0.000000
      8          6           0       -0.025457    2.856073    0.000000
      9          6           0       -1.276375    0.690589    0.000000
     10          6           0        1.245348   -0.701987    0.000000
     11          6           0       -1.202106   -0.798016    0.000000
     12          6           0        0.060650   -1.450452    0.000000
     13          6           0        0.000000    1.421408    0.000000
     14          6           0        1.216531    0.738445    0.000000
     15          1           0       -3.321903   -1.047717    0.000000
     16          1           0       -3.222779   -3.511441    0.000000
     17          1           0       -1.037380   -4.672099    0.000000
     18          1           0        1.051011   -3.362754    0.000000
     19          1           0        2.201966   -1.205699    0.000000
     20          1           0        3.338519    1.010596    0.000000
     21          1           0        3.280183    3.472488    0.000000
     22          1           0        1.103696    4.689687    0.000000
     23          1           0       -0.991696    3.346625    0.000000
     24          1           0       -1.873356    1.046443    0.859035
     25          1           0       -1.873356    1.046443   -0.859035
 ---------------------------------------------------------------------

 SCF Done:  E(RM062X) =  -539.756269978     A.U. after   15 cycles

 Excitation energies and oscillator strengths:

 Excited State   1:      Singlet-A'     2.7177 eV  456.21 nm  f=0.0220  <S**2>=0.000
      47 -> 48         0.70359
 This state for optimization and/or second-order correction.
 Total Energy, E(TD-HF/TD-DFT) =  -539.656396073
 Copying the excited state density for this state as the 1-particle RhoCI density.

 The electronic state is 1-A'.
 Alpha  occ. eigenvalues --  -10.77609 -10.73650 -10.72789 -10.72755 -10.72057
 Alpha  occ. eigenvalues --  -10.71801 -10.71761 -10.70975 -10.70940 -10.70260
 Alpha  occ. eigenvalues --  -10.70167 -10.69870 -10.69778 -10.69379  -1.16518
 Alpha  occ. eigenvalues --   -1.12480  -1.06940  -1.05830  -1.01297  -1.00346
 Alpha  occ. eigenvalues --   -0.95645  -0.91046  -0.86435  -0.85901  -0.83797
 Alpha  occ. eigenvalues --   -0.78362  -0.76111  -0.74387  -0.69700  -0.69297
 Alpha  occ. eigenvalues --   -0.68384  -0.68116  -0.68091  -0.65097  -0.64251
 Alpha  occ. eigenvalues --   -0.62863  -0.61702  -0.60320  -0.59369  -0.59136
 Alpha  occ. eigenvalues --   -0.56933  -0.55255  -0.54657  -0.52437  -0.47073
 Alpha  occ. eigenvalues --   -0.46107  -0.44027
 Alpha virt. eigenvalues --   -0.26093  -0.14669  -0.14085  -0.12765  -0.11187
 Alpha virt. eigenvalues --   -0.10093  -0.09248  -0.07969  -0.07940  -0.07481
 Alpha virt. eigenvalues --   -0.07211  -0.07141  -0.05644  -0.05578  -0.05346

 Mulliken charges:
               1
     1  C    0.076302
     2  C   -0.402498
     3  C   -0.434883
     4  C    0.031302
     5  C    0.002355
     6  C   -0.443344
     7  C   -0.412252
     8  C    0.111879
     9  C   -0.333109
    10  C    0.091096
    11  C   -0.652951
    12  C    0.703137
    13  C   -0.616233
    14  C    0.659274
    15  H    0.239211
    16  H    0.259713
    17  H    0.251611
    18  H    0.224866
    19  H    0.189782
    20  H    0.219290
    21  H    0.246241
    22  H    0.252960
    23  H    0.235382
    24  H    0.250434
    25  H    0.250434
 Sum of Mulliken charges =   1.00000

 Dipole moment (field-independent basis, Debye):
    X=             -0.2372    Y=             -0.8226    Z=             -0.0000  Tot=              0.8561
 Quadrupole moment (field-independent basis, Debye-Ang):
   XX=            -51.0795   YY=            -36.2514   ZZ=            -84.1349
   XY=             10.2023   XZ=              0.0000   YZ=             -0.0000

 Normal termination of Gaussian 16 at Tue Aug  2 12:30:27 2022.
