 Gaussian 16, Revision C.01,
 Gaussian 16:  ES64L-G16RevC.01  3-Jul-2019

 ---------------------------------------------------------------
 #n M062X/6-311++G(d,p) TD(NStates=1) EmpiricalDispersion=GD3 SP
 ---------------------------------------------------------------

 -----
 SP_50
 -----
 Symbolic Z-matrix:
 Charge =  1 Multiplicity = 1

                         Standard orientation:
 ---------------------------------------------------------------------
 Center     Atomic      Atomic             Coordinates (Angstroms)
 Number     Number       Type             X           Y           Z
 ---------------------------------------------------------------------
      1          6           0       -2.371858   -1.552396    0.000000
      2          6           0       -2.330178   -2.943144    0.000000
      3          6           0       -1.099629   -3.587122    0.000000
      4          6           0        0.081023   -2.845083    0.000000
      5          6           0        2.394533    1.504318    0.000000
      6          6           0        2.361704    2.917607    0.000000
      7          6           0        1.152670    3.590502    0.000000
      8          6           0       -0.021142    2.846058    0.000000
      9          6           0       -1.281831    0.689644    0.000000
     10          6           0        1.254801   -0.684466    0.000000
     11          6           0       -1.196287   -0.794099    0.000000
     12          6           0        0.059469   -1.440449    0.000000
     13          6           0        0.000000    1.428702    0.000000
     14          6           0        1.224521    0.742671    0.000000
     15          1           0       -3.327319   -1.042264    0.000000
     16          1           0       -3.247320   -3.513491    0.000000
     17          1           0       -1.050355   -4.666733    0.000000
     18          1           0        1.035657   -3.355181    0.000000
     19          1           0        2.208718   -1.193054    0.000000
     20          1           0        3.353341    1.001500    0.000000
     21          1           0        3.294348    3.464089    0.000000
     22          1           0        1.118224    4.669497    0.000000
     23          1           0       -0.980914    3.348439    0.000000
     24          1           0       -1.885580    1.025371    0.860135
     25          1           0       -1.885580    1.025371   -0.860135
 ---------------------------------------------------------------------

 SCF Done:  E(RM062X) =  -539.759800398     A.U. after   15 cycles

 Excitation energies and oscillator strengths:

 Excited State   1:      Singlet-A'     2.8087 eV  441.42 nm  f=0.0274  <S**2>=0.000
      47 -> 48         0.70410
 This state for optimization and/or second-order correction.
 Total Energy, E(TD-HF/TD-DFT) =  -539.656580823
 Copying the excited state density for this state as the 1-particle RhoCI density.

 The electronic state is 1-A'.
 Alpha  occ. eigenvalues --  -10.77664 -10.73397 -10.73108 -10.72554 -10.72320
 Alpha  occ. eigenvalues --  -10.71505 -10.71263 -10.71231 -10.70986 -10.70748
 Alpha  occ. eigenvalues --  -10.70038 -10.69907 -10.69715 -10.69551  -1.16437
 Alpha  occ. eigenvalues --   -1.12458  -1.06945  -1.05718  -1.01311  -1.00187
 Alpha  occ. eigenvalues --   -0.95768  -0.91049  -0.86418  -0.85897  -0.83809
 Alpha  occ. eigenvalues --   -0.78393  -0.76024  -0.74413  -0.69584  -0.69248
 Alpha  occ. eigenvalues --   -0.68485  -0.68178  -0.68105  -0.64784  -0.64270
 Alpha  occ. eigenvalues --   -0.63017  -0.61846  -0.60075  -0.59618  -0.59101
 Alpha  occ. eigenvalues --   -0.56894  -0.55225  -0.54806  -0.52440  -0.46673
 Alpha  occ. eigenvalues --   -0.46067  -0.44445
 Alpha virt. eigenvalues --   -0.26094  -0.14667  -0.14097  -0.12773  -0.11178
 Alpha virt. eigenvalues --   -0.10085  -0.09232  -0.07981  -0.07969  -0.07476
 Alpha virt. eigenvalues --   -0.07202  -0.07143  -0.05644  -0.05580  -0.05333

 Mulliken charges:
               1
     1  C    0.086653
     2  C   -0.405190
     3  C   -0.438414
     4  C    0.016301
     5  C    0.006964
     6  C   -0.441405
     7  C   -0.408352
     8  C    0.098305
     9  C   -0.339594
    10  C    0.089748
    11  C   -0.641188
    12  C    0.699915
    13  C   -0.628590
    14  C    0.685692
    15  H    0.238052
    16  H    0.257395
    17  H    0.249761
    18  H    0.222955
    19  H    0.190396
    20  H    0.221110
    21  H    0.247965
    22  H    0.255132
    23  H    0.236761
    24  H    0.249813
    25  H    0.249813
 Sum of Mulliken charges =   1.00000

 Dipole moment (field-independent basis, Debye):
    X=              0.0340    Y=             -0.3359    Z=              0.0000  Tot=              0.3376
 Quadrupole moment (field-independent basis, Debye-Ang):
   XX=            -50.7903   YY=            -36.5741   ZZ=            -84.1415
   XY=             10.3865   XZ=              0.0000   YZ=              0.0000

 Normal termination of Gaussian 16 at Tue Aug  2 12:34:49 2022.
