 Gaussian 16, Revision C.01,
 Gaussian 16:  ES64L-G16RevC.01  3-Jul-2019

 ---------------------------------------------------------------
 #n M062X/6-311++G(d,p) TD(NStates=1) EmpiricalDispersion=GD3 SP
 ---------------------------------------------------------------

 -----
 SP_50
 -----
 Symbolic Z-matrix:
 Charge =  1 Multiplicity = 1

                         Standard orientation:
 ---------------------------------------------------------------------
 Center     Atomic      Atomic             Coordinates (Angstroms)
 Number     Number       Type             X           Y           Z
 ---------------------------------------------------------------------
      1          6           0        0.020540    2.853862    0.000000
      2          6           0       -1.148249    3.602267    0.000000
      3          6           0       -2.353916    2.926572    0.000000
      4          6           0       -2.384495    1.503552    0.000000
      5          6           0       -0.086415   -2.854389    0.000000
      6          6           0        1.086042   -3.591557    0.000000
      7          6           0        2.318391   -2.943230    0.000000
      8          6           0        2.366841   -1.553408    0.000000
      9          6           0        1.286938    0.694120    0.000000
     10          6           0       -1.250435   -0.693357    0.000000
     11          6           0        0.000000    1.425371    0.000000
     12          6           0       -1.219592    0.740187    0.000000
     13          6           0        1.199399   -0.796303    0.000000
     14          6           0       -0.059946   -1.444453    0.000000
     15          1           0        0.983201    3.350783    0.000000
     16          1           0       -1.113225    4.680967    0.000000
     17          1           0       -3.289642    3.467767    0.000000
     18          1           0       -3.345883    1.005507    0.000000
     19          1           0       -2.205546   -1.199383    0.000000
     20          1           0       -1.043986   -3.358546    0.000000
     21          1           0        1.041789   -4.671153    0.000000
     22          1           0        3.234681   -3.515319    0.000000
     23          1           0        3.325494   -1.049593    0.000000
     24          1           0        1.881247    1.036779    0.861785
     25          1           0        1.881247    1.036779   -0.861785
 ---------------------------------------------------------------------

 SCF Done:  E(RM062X) =  -539.758526926     A.U. after   15 cycles

 Excitation energies and oscillator strengths:

 Excited State   1:      Singlet-A'     2.7699 eV  447.61 nm  f=0.0242  <S**2>=0.000
      47 -> 48         0.70382
 This state for optimization and/or second-order correction.
 Total Energy, E(TD-HF/TD-DFT) =  -539.656735087
 Copying the excited state density for this state as the 1-particle RhoCI density.

 The electronic state is 1-A'.
 Alpha  occ. eigenvalues --  -10.77660 -10.73580 -10.72999 -10.72675 -10.72209
 Alpha  occ. eigenvalues --  -10.71640 -10.71521 -10.71093 -10.71009 -10.70492
 Alpha  occ. eigenvalues --  -10.70106 -10.69843 -10.69806 -10.69480  -1.16420
 Alpha  occ. eigenvalues --   -1.12434  -1.06944  -1.05682  -1.01304  -1.00193
 Alpha  occ. eigenvalues --   -0.95726  -0.91029  -0.86418  -0.85881  -0.83790
 Alpha  occ. eigenvalues --   -0.78373  -0.76014  -0.74397  -0.69649  -0.69257
 Alpha  occ. eigenvalues --   -0.68428  -0.68134  -0.68115  -0.64899  -0.64239
 Alpha  occ. eigenvalues --   -0.62891  -0.61778  -0.60225  -0.59499  -0.59124
 Alpha  occ. eigenvalues --   -0.56886  -0.55246  -0.54715  -0.52445  -0.46808
 Alpha  occ. eigenvalues --   -0.46091  -0.44292
 Alpha virt. eigenvalues --   -0.26112  -0.14663  -0.14094  -0.12774  -0.11179
 Alpha virt. eigenvalues --   -0.10082  -0.09238  -0.07976  -0.07968  -0.07477
 Alpha virt. eigenvalues --   -0.07199  -0.07138  -0.05647  -0.05576  -0.05334

 Mulliken charges:
               1
     1  C    0.101859
     2  C   -0.409000
     3  C   -0.442818
     4  C   -0.005808
     5  C    0.011433
     6  C   -0.436282
     7  C   -0.403038
     8  C    0.079741
     9  C   -0.356351
    10  C    0.078632
    11  C   -0.612352
    12  C    0.695587
    13  C   -0.641224
    14  C    0.721311
    15  H    0.236447
    16  H    0.253883
    17  H    0.246994
    18  H    0.220322
    19  H    0.190404
    20  H    0.223898
    21  H    0.250565
    22  H    0.258419
    23  H    0.239017
    24  H    0.249180
    25  H    0.249180
 Sum of Mulliken charges =   1.00000

 Dipole moment (field-independent basis, Debye):
    X=              0.0952    Y=             -0.5837    Z=              0.0000  Tot=              0.5915
 Quadrupole moment (field-independent basis, Debye-Ang):
   XX=            -50.9363   YY=            -36.3851   ZZ=            -84.1407
   XY=            -10.3151   XZ=              0.0000   YZ=              0.0000

 Normal termination of Gaussian 16 at Tue Aug  2 12:41:24 2022.
