 Gaussian 16, Revision C.01,
 Gaussian 16:  ES64L-G16RevC.01  3-Jul-2019

 ---------------------------------------------------------------
 #n M062X/6-311++G(d,p) TD(NStates=1) EmpiricalDispersion=GD3 SP
 ---------------------------------------------------------------

 ----
 SP_0
 ----
 Symbolic Z-matrix:
 Charge =  1 Multiplicity = 1

                         Standard orientation:
 ---------------------------------------------------------------------
 Center     Atomic      Atomic             Coordinates (Angstroms)
 Number     Number       Type             X           Y           Z
 ---------------------------------------------------------------------
      1          6           0       -2.362997   -1.545913    0.000000
      2          6           0       -2.312159   -2.939094    0.000000
      3          6           0       -1.081901   -3.589697    0.000000
      4          6           0        0.088405   -2.858324    0.000000
      5          6           0        2.378691    1.503006    0.000000
      6          6           0        2.345560    2.930632    0.000000
      7          6           0        1.143259    3.605361    0.000000
      8          6           0       -0.025733    2.852175    0.000000
      9          6           0       -1.273858    0.688269    0.000000
     10          6           0        1.247511   -0.697529    0.000000
     11          6           0       -1.200551   -0.796897    0.000000
     12          6           0        0.060399   -1.448444    0.000000
     13          6           0        0.000000    1.423076    0.000000
     14          6           0        1.218994    0.739696    0.000000
     15          1           0       -3.322818   -1.044039    0.000000
     16          1           0       -3.229100   -3.510531    0.000000
     17          1           0       -1.041680   -4.669887    0.000000
     18          1           0        1.046829   -3.361080    0.000000
     19          1           0        2.203534   -1.202527    0.000000
     20          1           0        3.342257    1.008601    0.000000
     21          1           0        3.282553    3.470652    0.000000
     22          1           0        1.106234    4.683960    0.000000
     23          1           0       -0.990537    3.345465    0.000000
     24          1           0       -1.875490    1.040737    0.858210
     25          1           0       -1.875490    1.040737   -0.858210
 ---------------------------------------------------------------------

 SCF Done:  E(RM062X) =  -539.757398536     A.U. after   15 cycles

 Excitation energies and oscillator strengths:

 Excited State   1:      Singlet-A'     2.7461 eV  451.49 nm  f=0.0236  <S**2>=0.000
      47 -> 48         0.70368
 This state for optimization and/or second-order correction.
 Total Energy, E(TD-HF/TD-DFT) =  -539.656479886
 Copying the excited state density for this state as the 1-particle RhoCI density.

 The electronic state is 1-A'.
 Alpha  occ. eigenvalues --  -10.77618 -10.73561 -10.72844 -10.72698 -10.72116
 Alpha  occ. eigenvalues --  -10.71696 -10.71669 -10.71011 -10.70964 -10.70384
 Alpha  occ. eigenvalues --  -10.70134 -10.69825 -10.69810 -10.69415  -1.16518
 Alpha  occ. eigenvalues --   -1.12491  -1.06941  -1.05837  -1.01302  -1.00325
 Alpha  occ. eigenvalues --   -0.95682  -0.91059  -0.86433  -0.85910  -0.83810
 Alpha  occ. eigenvalues --   -0.78377  -0.76108  -0.74399  -0.69652  -0.69287
 Alpha  occ. eigenvalues --   -0.68426  -0.68147  -0.68088  -0.65011  -0.64265
 Alpha  occ. eigenvalues --   -0.62942  -0.61758  -0.60236  -0.59436  -0.59119
 Alpha  occ. eigenvalues --   -0.56934  -0.55245  -0.54720  -0.52435  -0.46960
 Alpha  occ. eigenvalues --   -0.46095  -0.44144
 Alpha virt. eigenvalues --   -0.26082  -0.14671  -0.14088  -0.12765  -0.11186
 Alpha virt. eigenvalues --   -0.10094  -0.09242  -0.07973  -0.07944  -0.07480
 Alpha virt. eigenvalues --   -0.07211  -0.07144  -0.05643  -0.05580  -0.05344

 Mulliken charges:
               1
     1  C    0.078673
     2  C   -0.403144
     3  C   -0.436120
     4  C    0.034584
     5  C    0.009482
     6  C   -0.442738
     7  C   -0.411449
     8  C    0.109214
     9  C   -0.323808
    10  C    0.096948
    11  C   -0.651813
    12  C    0.691192
    13  C   -0.623732
    14  C    0.652359
    15  H    0.238699
    16  H    0.259212
    17  H    0.251211
    18  H    0.224407
    19  H    0.189856
    20  H    0.219676
    21  H    0.246728
    22  H    0.253586
    23  H    0.235489
    24  H    0.250744
    25  H    0.250744
 Sum of Mulliken charges =   1.00000

 Dipole moment (field-independent basis, Debye):
    X=             -0.1722    Y=             -0.6996    Z=             -0.0000  Tot=              0.7205
 Quadrupole moment (field-independent basis, Debye-Ang):
   XX=            -51.0078   YY=            -36.3529   ZZ=            -84.1361
   XY=             10.2338   XZ=              0.0000   YZ=             -0.0000

 Normal termination of Gaussian 16 at Tue Aug  2 12:01:22 2022.
