 Gaussian 16, Revision C.01,
 Gaussian 16:  ES64L-G16RevC.01  3-Jul-2019

 ---------------------------------------------------------------
 #n M062X/6-311++G(d,p) TD(NStates=1) EmpiricalDispersion=GD3 SP
 ---------------------------------------------------------------

 -----
 SP_50
 -----
 Symbolic Z-matrix:
 Charge =  1 Multiplicity = 1

                         Standard orientation:
 ---------------------------------------------------------------------
 Center     Atomic      Atomic             Coordinates (Angstroms)
 Number     Number       Type             X           Y           Z
 ---------------------------------------------------------------------
      1          6           0       -2.357656   -1.544933    0.000000
      2          6           0       -2.300280   -2.938119    0.000000
      3          6           0       -1.068939   -3.593085    0.000000
      4          6           0        0.093687   -2.867444    0.000000
      5          6           0        2.368451    1.502171    0.000000
      6          6           0        2.336593    2.939472    0.000000
      7          6           0        1.138058    3.616420    0.000000
      8          6           0       -0.026562    2.858578    0.000000
      9          6           0       -1.275018    0.690826    0.000000
     10          6           0        1.243010   -0.706371    0.000000
     11          6           0       -1.203554   -0.799010    0.000000
     12          6           0        0.060964   -1.452954    0.000000
     13          6           0        0.000000    1.419587    0.000000
     14          6           0        1.214536    0.737387    0.000000
     15          1           0       -3.320544   -1.049094    0.000000
     16          1           0       -3.216633   -3.510926    0.000000
     17          1           0       -1.034107   -4.673441    0.000000
     18          1           0        1.054878   -3.364631    0.000000
     19          1           0        2.200302   -1.208857    0.000000
     20          1           0        3.334804    1.012874    0.000000
     21          1           0        3.276620    3.474597    0.000000
     22          1           0        1.100018    4.694733    0.000000
     23          1           0       -0.994410    3.346160    0.000000
     24          1           0       -1.870331    1.051715    0.858760
     25          1           0       -1.870331    1.051715   -0.858760
 ---------------------------------------------------------------------

 SCF Done:  E(RM062X) =  -539.754830712     A.U. after   15 cycles

 Excitation energies and oscillator strengths:

 Excited State   1:      Singlet-A'     2.6878 eV  461.29 nm  f=0.0208  <S**2>=0.000
      47 -> 48         0.70352
 This state for optimization and/or second-order correction.
 Total Energy, E(TD-HF/TD-DFT) =  -539.656057460
 Copying the excited state density for this state as the 1-particle RhoCI density.

 The electronic state is 1-A'.
 Alpha  occ. eigenvalues --  -10.77588 -10.73712 -10.72801 -10.72709 -10.71988
 Alpha  occ. eigenvalues --  -10.71938 -10.71821 -10.70973 -10.70866 -10.70199
 Alpha  occ. eigenvalues --  -10.70143 -10.69908 -10.69746 -10.69337  -1.16547
 Alpha  occ. eigenvalues --   -1.12486  -1.06938  -1.05868  -1.01291  -1.00403
 Alpha  occ. eigenvalues --   -0.95599  -0.91043  -0.86441  -0.85902  -0.83790
 Alpha  occ. eigenvalues --   -0.78348  -0.76141  -0.74378  -0.69743  -0.69313
 Alpha  occ. eigenvalues --   -0.68347  -0.68093  -0.68087  -0.65199  -0.64247
 Alpha  occ. eigenvalues --   -0.62811  -0.61645  -0.60391  -0.59300  -0.59149
 Alpha  occ. eigenvalues --   -0.56945  -0.55262  -0.54602  -0.52437  -0.47210
 Alpha  occ. eigenvalues --   -0.46115  -0.43891
 Alpha virt. eigenvalues --   -0.26094  -0.14669  -0.14080  -0.12761  -0.11190
 Alpha virt. eigenvalues --   -0.10095  -0.09254  -0.07964  -0.07929  -0.07483
 Alpha virt. eigenvalues --   -0.07213  -0.07139  -0.05644  -0.05577  -0.05351

 Mulliken charges:
               1
     1  C    0.073747
     2  C   -0.401816
     3  C   -0.433917
     4  C    0.034921
     5  C    0.001054
     6  C   -0.443656
     7  C   -0.413290
     8  C    0.115458
     9  C   -0.332121
    10  C    0.090712
    11  C   -0.655324
    12  C    0.703992
    13  C   -0.612562
    14  C    0.652663
    15  H    0.239509
    16  H    0.260284
    17  H    0.252072
    18  H    0.225354
    19  H    0.189552
    20  H    0.218846
    21  H    0.245812
    22  H    0.252423
    23  H    0.235059
    24  H    0.250614
    25  H    0.250614
 Sum of Mulliken charges =   1.00000

 Dipole moment (field-independent basis, Debye):
    X=             -0.3052    Y=             -0.9431    Z=             -0.0000  Tot=              0.9912
 Quadrupole moment (field-independent basis, Debye-Ang):
   XX=            -51.1507   YY=            -36.1642   ZZ=            -84.1324
   XY=             10.1600   XZ=             -0.0000   YZ=             -0.0000

 Normal termination of Gaussian 16 at Tue Aug  2 12:29:21 2022.
