 Gaussian 16, Revision C.01,
 Gaussian 16:  ES64L-G16RevC.01  3-Jul-2019

 ---------------------------------------------------------------
 #n M062X/6-311++G(d,p) TD(NStates=1) EmpiricalDispersion=GD3 SP
 ---------------------------------------------------------------

 ------
 SP_-25
 ------
 Symbolic Z-matrix:
 Charge =  1 Multiplicity = 1

                         Standard orientation:
 ---------------------------------------------------------------------
 Center     Atomic      Atomic             Coordinates (Angstroms)
 Number     Number       Type             X           Y           Z
 ---------------------------------------------------------------------
      1          6           0        2.493766   -1.350242    0.000000
      2          6           0        3.699642   -0.654471    0.000000
      3          6           0        3.679214    0.732123    0.000000
      4          6           0        2.460942    1.420336    0.000000
      5          6           0       -2.465154    1.394450    0.000000
      6          6           0       -3.687512    0.694016    0.000000
      7          6           0       -3.701865   -0.690053    0.000000
      8          6           0       -2.488649   -1.371522    0.000000
      9          6           0        0.004220   -1.450064    0.000000
     10          6           0        0.000000    1.429053    0.000000
     11          6           0        1.265873   -0.673463    0.000000
     12          6           0        1.237181    0.736695    0.000000
     13          6           0       -1.258005   -0.680569    0.000000
     14          6           0       -1.238335    0.725373    0.000000
     15          1           0        2.496024   -2.433458    0.000000
     16          1           0        4.637018   -1.190741    0.000000
     17          1           0        4.604302    1.291254    0.000000
     18          1           0        2.458872    2.502833    0.000000
     19          1           0       -0.005158    2.510193    0.000000
     20          1           0       -2.476612    2.477031    0.000000
     21          1           0       -4.613686    1.251554    0.000000
     22          1           0       -4.634663   -1.233773    0.000000
     23          1           0       -2.476773   -2.454772    0.000000
     24          1           0        0.001380   -2.145050    0.858760
     25          1           0        0.001380   -2.145050   -0.858760
 ---------------------------------------------------------------------

 SCF Done:  E(RM062X) =  -539.760075510     A.U. after   15 cycles

 Excitation energies and oscillator strengths:

 Excited State   1:      Singlet-A'     2.8189 eV  439.83 nm  f=0.0285  <S**2>=0.000
      47 -> 48         0.70422
 This state for optimization and/or second-order correction.
 Total Energy, E(TD-HF/TD-DFT) =  -539.656482335
 Copying the excited state density for this state as the 1-particle RhoCI density.

 The electronic state is 1-A'.
 Alpha  occ. eigenvalues --  -10.77657 -10.73293 -10.73148 -10.72487 -10.72370
 Alpha  occ. eigenvalues --  -10.71435 -10.71297 -10.71137 -10.70969 -10.70880
 Alpha  occ. eigenvalues --  -10.70004 -10.69939 -10.69665 -10.69583  -1.16463
 Alpha  occ. eigenvalues --   -1.12478  -1.06944  -1.05764  -1.01313  -1.00212
 Alpha  occ. eigenvalues --   -0.95775  -0.91063  -0.86421  -0.85909  -0.83822
 Alpha  occ. eigenvalues --   -0.78402  -0.76048  -0.74419  -0.69557  -0.69252
 Alpha  occ. eigenvalues --   -0.68507  -0.68198  -0.68096  -0.64756  -0.64290
 Alpha  occ. eigenvalues --   -0.63086  -0.61864  -0.60000  -0.59670  -0.59090
 Alpha  occ. eigenvalues --   -0.56908  -0.55211  -0.54847  -0.52435  -0.46651
 Alpha  occ. eigenvalues --   -0.46059  -0.44474
 Alpha virt. eigenvalues --   -0.26081  -0.14671  -0.14097  -0.12772  -0.11180
 Alpha virt. eigenvalues --   -0.10089  -0.09230  -0.07983  -0.07965  -0.07476
 Alpha virt. eigenvalues --   -0.07206  -0.07147  -0.05642  -0.05582  -0.05334

 Mulliken charges:
               1
     1  C    0.090517
     2  C   -0.406075
     3  C   -0.439430
     4  C    0.022007
     5  C    0.016978
     6  C   -0.440796
     7  C   -0.407710
     8  C    0.096542
     9  C   -0.326147
    10  C    0.097468
    11  C   -0.641339
    12  C    0.680690
    13  C   -0.635616
    14  C    0.672952
    15  H    0.237445
    16  H    0.256930
    17  H    0.249383
    18  H    0.222472
    19  H    0.190296
    20  H    0.221527
    21  H    0.248485
    22  H    0.255799
    23  H    0.236800
    24  H    0.250413
    25  H    0.250413
 Sum of Mulliken charges =   1.00000

 Dipole moment (field-independent basis, Debye):
    X=              0.1392    Y=              0.1852    Z=              0.0000  Tot=              0.2317
 Quadrupole moment (field-independent basis, Debye-Ang):
   XX=            -31.1325   YY=            -56.2571   ZZ=            -84.1410
   XY=              0.1767   XZ=              0.0000   YZ=             -0.0000

 Normal termination of Gaussian 16 at Tue Aug  2 11:50:10 2022.
