 Gaussian 16, Revision C.01,
 Gaussian 16:  ES64L-G16RevC.01  3-Jul-2019

 ---------------------------------------------------------------
 #n M062X/6-311++G(d,p) TD(NStates=1) EmpiricalDispersion=GD3 SP
 ---------------------------------------------------------------

 ------
 SP_-25
 ------
 Symbolic Z-matrix:
 Charge =  1 Multiplicity = 1

                         Standard orientation:
 ---------------------------------------------------------------------
 Center     Atomic      Atomic             Coordinates (Angstroms)
 Number     Number       Type             X           Y           Z
 ---------------------------------------------------------------------
      1          6           0        0.023405    2.858172    0.000000
      2          6           0       -1.142045    3.612283    0.000000
      3          6           0       -2.343306    2.935260    0.000000
      4          6           0       -2.373963    1.502664    0.000000
      5          6           0       -0.091398   -2.863245    0.000000
      6          6           0        1.074095   -3.593428    0.000000
      7          6           0        2.306391   -2.940695    0.000000
      8          6           0        2.360993   -1.549424    0.000000
      9          6           0        1.282238    0.693625    0.000000
     10          6           0       -1.245631   -0.702091    0.000000
     11          6           0        0.000000    1.421644    0.000000
     12          6           0       -1.215832    0.738160    0.000000
     13          6           0        1.202256   -0.798210    0.000000
     14          6           0       -0.060572   -1.449708    0.000000
     15          1           0        0.989381    3.349059    0.000000
     16          1           0       -1.105370    4.690716    0.000000
     17          1           0       -3.281956    3.472099    0.000000
     18          1           0       -3.338479    1.010185    0.000000
     19          1           0       -2.202130   -1.205707    0.000000
     20          1           0       -1.051511   -3.362431    0.000000
     21          1           0        1.035809   -4.673401    0.000000
     22          1           0        3.222499   -3.513577    0.000000
     23          1           0        3.322559   -1.051177    0.000000
     24          1           0        1.874710    1.047097    0.860685
     25          1           0        1.874710    1.047097   -0.860685
 ---------------------------------------------------------------------

 SCF Done:  E(RM062X) =  -539.756355208     A.U. after   15 cycles

 Excitation energies and oscillator strengths:

 Excited State   1:      Singlet-A'     2.7164 eV  456.43 nm  f=0.0216  <S**2>=0.000
      47 -> 48         0.70361
 This state for optimization and/or second-order correction.
 Total Energy, E(TD-HF/TD-DFT) =  -539.656529208
 Copying the excited state density for this state as the 1-particle RhoCI density.

 The electronic state is 1-A'.
 Alpha  occ. eigenvalues --  -10.77622 -10.73692 -10.72826 -10.72768 -10.72070
 Alpha  occ. eigenvalues --  -10.71794 -10.71764 -10.70996 -10.70945 -10.70254
 Alpha  occ. eigenvalues --  -10.70170 -10.69879 -10.69778 -10.69391  -1.16480
 Alpha  occ. eigenvalues --   -1.12454  -1.06941  -1.05768  -1.01295  -1.00302
 Alpha  occ. eigenvalues --   -0.95649  -0.91030  -0.86430  -0.85887  -0.83785
 Alpha  occ. eigenvalues --   -0.78355  -0.76077  -0.74382  -0.69713  -0.69289
 Alpha  occ. eigenvalues --   -0.68371  -0.68102  -0.68101  -0.65082  -0.64236
 Alpha  occ. eigenvalues --   -0.62823  -0.61687  -0.60344  -0.59372  -0.59143
 Alpha  occ. eigenvalues --   -0.56915  -0.55257  -0.54636  -0.52442  -0.47054
 Alpha  occ. eigenvalues --   -0.46110  -0.44041
 Alpha virt. eigenvalues --   -0.26107  -0.14665  -0.14086  -0.12768  -0.11185
 Alpha virt. eigenvalues --   -0.10088  -0.09248  -0.07968  -0.07948  -0.07480
 Alpha virt. eigenvalues --   -0.07205  -0.07137  -0.05646  -0.05576  -0.05343

 Mulliken charges:
               1
     1  C    0.109675
     2  C   -0.411466
     3  C   -0.443719
     4  C   -0.005611
     5  C    0.021314
     6  C   -0.434392
     7  C   -0.402170
     8  C    0.075767
     9  C   -0.348654
    10  C    0.081944
    11  C   -0.608200
    12  C    0.678056
    13  C   -0.649600
    14  C    0.718052
    15  H    0.235690
    16  H    0.252836
    17  H    0.246161
    18  H    0.219408
    19  H    0.189978
    20  H    0.224832
    21  H    0.251518
    22  H    0.259611
    23  H    0.239516
    24  H    0.249727
    25  H    0.249727
 Sum of Mulliken charges =   1.00000

 Dipole moment (field-independent basis, Debye):
    X=              0.2326    Y=             -0.8255    Z=             -0.0000  Tot=              0.8577
 Quadrupole moment (field-independent basis, Debye-Ang):
   XX=            -51.0797   YY=            -36.2264   ZZ=            -84.1363
   XY=            -10.2204   XZ=             -0.0000   YZ=             -0.0000

 Normal termination of Gaussian 16 at Tue Aug  2 11:58:05 2022.
