 Gaussian 16, Revision C.01,
 Gaussian 16:  ES64L-G16RevC.01  3-Jul-2019

 ---------------------------------------------------------------
 #n M062X/6-311++G(d,p) TD(NStates=1) EmpiricalDispersion=GD3 SP
 ---------------------------------------------------------------

 -----
 SP_50
 -----
 Symbolic Z-matrix:
 Charge =  1 Multiplicity = 1

                         Standard orientation:
 ---------------------------------------------------------------------
 Center     Atomic      Atomic             Coordinates (Angstroms)
 Number     Number       Type             X           Y           Z
 ---------------------------------------------------------------------
      1          6           0        0.019772    2.847456    0.000000
      2          6           0       -1.153357    3.591204    0.000000
      3          6           0       -2.362812    2.917718    0.000000
      4          6           0       -2.394729    1.504366    0.000000
      5          6           0       -0.081211   -2.845257    0.000000
      6          6           0        1.098956   -3.588138    0.000000
      7          6           0        2.330256   -2.944187    0.000000
      8          6           0        2.372191   -1.554396    0.000000
      9          6           0        1.285771    0.691610    0.000000
     10          6           0       -1.254993   -0.684529    0.000000
     11          6           0        0.000000    1.428864    0.000000
     12          6           0       -1.224055    0.742491    0.000000
     13          6           0        1.196384   -0.794226    0.000000
     14          6           0       -0.059424   -1.439947    0.000000
     15          1           0        0.979369    3.350059    0.000000
     16          1           0       -1.119336    4.670186    0.000000
     17          1           0       -3.295524    3.463837    0.000000
     18          1           0       -3.353314    1.001238    0.000000
     19          1           0       -2.208832   -1.193051    0.000000
     20          1           0       -1.036000   -3.354960    0.000000
     21          1           0        1.049298   -4.667602    0.000000
     22          1           0        3.247128   -3.514918    0.000000
     23          1           0        3.327760   -1.044571    0.000000
     24          1           0        1.886481    1.025811    0.861235
     25          1           0        1.886481    1.025811   -0.861235
 ---------------------------------------------------------------------

 SCF Done:  E(RM062X) =  -539.759820718     A.U. after   15 cycles

 Excitation energies and oscillator strengths:

 Excited State   1:      Singlet-A'     2.8089 eV  441.40 nm  f=0.0271  <S**2>=0.000
      47 -> 48         0.70410
 This state for optimization and/or second-order correction.
 Total Energy, E(TD-HF/TD-DFT) =  -539.656596186
 Copying the excited state density for this state as the 1-particle RhoCI density.

 The electronic state is 1-A'.
 Alpha  occ. eigenvalues --  -10.77673 -10.73424 -10.73134 -10.72563 -10.72329
 Alpha  occ. eigenvalues --  -10.71508 -10.71258 -10.71234 -10.71000 -10.70743
 Alpha  occ. eigenvalues --  -10.70039 -10.69908 -10.69721 -10.69558  -1.16411
 Alpha  occ. eigenvalues --   -1.12441  -1.06945  -1.05677  -1.01311  -1.00157
 Alpha  occ. eigenvalues --   -0.95771  -0.91039  -0.86415  -0.85887  -0.83801
 Alpha  occ. eigenvalues --   -0.78389  -0.76001  -0.74410  -0.69596  -0.69242
 Alpha  occ. eigenvalues --   -0.68476  -0.68167  -0.68113  -0.64777  -0.64260
 Alpha  occ. eigenvalues --   -0.62981  -0.61842  -0.60100  -0.59611  -0.59106
 Alpha  occ. eigenvalues --   -0.56881  -0.55230  -0.54787  -0.52443  -0.46658
 Alpha  occ. eigenvalues --   -0.46067  -0.44459
 Alpha virt. eigenvalues --   -0.26104  -0.14665  -0.14098  -0.12775  -0.11177
 Alpha virt. eigenvalues --   -0.10082  -0.09232  -0.07980  -0.07975  -0.07475
 Alpha virt. eigenvalues --   -0.07198  -0.07141  -0.05645  -0.05579  -0.05331

 Mulliken charges:
               1
     1  C    0.097010
     2  C   -0.407765
     3  C   -0.441466
     4  C    0.001409
     5  C    0.010245
     6  C   -0.438291
     7  C   -0.404759
     8  C    0.085628
     9  C   -0.349891
    10  C    0.083595
    11  C   -0.623938
    12  C    0.696926
    13  C   -0.637644
    14  C    0.710391
    15  H    0.236958
    16  H    0.255054
    17  H    0.247909
    18  H    0.221158
    19  H    0.190519
    20  H    0.222970
    21  H    0.249701
    22  H    0.257322
    23  H    0.238252
    24  H    0.249353
    25  H    0.249353
 Sum of Mulliken charges =   1.00000

 Dipole moment (field-independent basis, Debye):
    X=             -0.0371    Y=             -0.3376    Z=              0.0000  Tot=              0.3397
 Quadrupole moment (field-independent basis, Debye-Ang):
   XX=            -50.7907   YY=            -36.5575   ZZ=            -84.1424
   XY=            -10.3983   XZ=              0.0000   YZ=              0.0000

 Normal termination of Gaussian 16 at Tue Aug  2 12:39:13 2022.
