 Gaussian 16, Revision C.01,
 Gaussian 16:  ES64L-G16RevC.01  3-Jul-2019

 ---------------------------------------------------------------
 #n M062X/6-311++G(d,p) TD(NStates=1) EmpiricalDispersion=GD3 SP
 ---------------------------------------------------------------

 ------
 SP_100
 ------
 Symbolic Z-matrix:
 Charge =  1 Multiplicity = 1

                         Standard orientation:
 ---------------------------------------------------------------------
 Center     Atomic      Atomic             Coordinates (Angstroms)
 Number     Number       Type             X           Y           Z
 ---------------------------------------------------------------------
      1          6           0        2.494368   -1.369737    0.000000
      2          6           0        3.704727   -0.689000    0.000000
      3          6           0        3.689326    0.697024    0.000000
      4          6           0        2.465454    1.395058    0.000000
      5          6           0       -2.461242    1.420921    0.000000
      6          6           0       -3.681000    0.735109    0.000000
      7          6           0       -3.702479   -0.653430    0.000000
      8          6           0       -2.499447   -1.348433    0.000000
      9          6           0       -0.004340   -1.463266    0.000000
     10          6           0        0.000000    1.429650    0.000000
     11          6           0        1.258462   -0.680718    0.000000
     12          6           0        1.237132    0.724482    0.000000
     13          6           0       -1.266316   -0.673621    0.000000
     14          6           0       -1.235984    0.735780    0.000000
     15          1           0        2.483398   -2.452841    0.000000
     16          1           0        4.638134   -1.231518    0.000000
     17          1           0        4.614601    1.255320    0.000000
     18          1           0        2.475706    2.477495    0.000000
     19          1           0        0.005151    2.510490    0.000000
     20          1           0       -2.457978    2.503263    0.000000
     21          1           0       -4.605188    1.294981    0.000000
     22          1           0       -4.640448   -1.188503    0.000000
     23          1           0       -2.502598   -2.431496    0.000000
     24          1           0       -0.001377   -2.148054    0.862060
     25          1           0       -0.001377   -2.148054   -0.862060
 ---------------------------------------------------------------------

 SCF Done:  E(RM062X) =  -539.760157829     A.U. after   15 cycles

 Excitation energies and oscillator strengths:

 Excited State   1:      Singlet-A'     2.8199 eV  439.68 nm  f=0.0279  <S**2>=0.000
      47 -> 48         0.70422
 This state for optimization and/or second-order correction.
 Total Energy, E(TD-HF/TD-DFT) =  -539.656528930
 Copying the excited state density for this state as the 1-particle RhoCI density.

 The electronic state is 1-A'.
 Alpha  occ. eigenvalues --  -10.77684 -10.73372 -10.73227 -10.72513 -10.72396
 Alpha  occ. eigenvalues --  -10.71442 -10.71305 -10.71124 -10.71012 -10.70867
 Alpha  occ. eigenvalues --  -10.70007 -10.69941 -10.69686 -10.69604  -1.16387
 Alpha  occ. eigenvalues --   -1.12428  -1.06946  -1.05638  -1.01312  -1.00122
 Alpha  occ. eigenvalues --   -0.95786  -0.91033  -0.86411  -0.85880  -0.83798
 Alpha  occ. eigenvalues --   -0.78389  -0.75976  -0.74411  -0.69591  -0.69234
 Alpha  occ. eigenvalues --   -0.68481  -0.68167  -0.68121  -0.64737  -0.64257
 Alpha  occ. eigenvalues --   -0.62973  -0.61856  -0.60082  -0.59640  -0.59106
 Alpha  occ. eigenvalues --   -0.56868  -0.55230  -0.54789  -0.52445  -0.46606
 Alpha  occ. eigenvalues --   -0.46059  -0.44517
 Alpha virt. eigenvalues --   -0.26111  -0.14663  -0.14100  -0.12777  -0.11176
 Alpha virt. eigenvalues --   -0.10079  -0.09231  -0.07982  -0.07981  -0.07474
 Alpha virt. eigenvalues --   -0.07196  -0.07141  -0.05646  -0.05578  -0.05328

 Mulliken charges:
               1
     1  C    0.093313
     2  C   -0.406309
     3  C   -0.440858
     4  C   -0.000436
     5  C    0.003890
     6  C   -0.439206
     7  C   -0.404869
     8  C    0.087782
     9  C   -0.357145
    10  C    0.079284
    11  C   -0.623264
    12  C    0.706898
    13  C   -0.630582
    14  C    0.713382
    15  H    0.237406
    16  H    0.255564
    17  H    0.248312
    18  H    0.221638
    19  H    0.190662
    20  H    0.222532
    21  H    0.249204
    22  H    0.256703
    23  H    0.238052
    24  H    0.249023
    25  H    0.249023
 Sum of Mulliken charges =   1.00000

 Dipole moment (field-independent basis, Debye):
    X=             -0.1393    Y=              0.1958    Z=             -0.0000  Tot=              0.2403
 Quadrupole moment (field-independent basis, Debye-Ang):
   XX=            -31.0645   YY=            -56.2764   ZZ=            -84.1437
   XY=             -0.1768   XZ=             -0.0000   YZ=              0.0000

 Normal termination of Gaussian 16 at Tue Aug  2 13:09:03 2022.
