 Gaussian 16, Revision C.01,
 Gaussian 16:  ES64L-G16RevC.01  3-Jul-2019

 ---------------------------------------------------------------
 #n M062X/6-311++G(d,p) TD(NStates=1) EmpiricalDispersion=GD3 SP
 ---------------------------------------------------------------

 ----
 SP_0
 ----
 Symbolic Z-matrix:
 Charge =  1 Multiplicity = 1

                         Standard orientation:
 ---------------------------------------------------------------------
 Center     Atomic      Atomic             Coordinates (Angstroms)
 Number     Number       Type             X           Y           Z
 ---------------------------------------------------------------------
      1          6           0        0.021143    2.846060    0.000000
      2          6           0       -1.152668    3.590506    0.000000
      3          6           0       -2.361702    2.917612    0.000000
      4          6           0       -2.394533    1.504323    0.000000
      5          6           0       -0.081027   -2.845080    0.000000
      6          6           0        1.099624   -3.587120    0.000000
      7          6           0        2.330174   -2.943144    0.000000
      8          6           0        2.371855   -1.552396    0.000000
      9          6           0        1.281854    0.689602    0.000000
     10          6           0       -1.254803   -0.684462    0.000000
     11          6           0        0.000000    1.428704    0.000000
     12          6           0       -1.224522    0.742675    0.000000
     13          6           0        1.196285   -0.794098    0.000000
     14          6           0       -0.059472   -1.440446    0.000000
     15          1           0        0.980916    3.348440    0.000000
     16          1           0       -1.118221    4.669501    0.000000
     17          1           0       -3.294346    3.464095    0.000000
     18          1           0       -3.353341    1.001506    0.000000
     19          1           0       -2.208721   -1.193049    0.000000
     20          1           0       -1.035662   -3.355177    0.000000
     21          1           0        1.050349   -4.666732    0.000000
     22          1           0        3.247315   -3.513492    0.000000
     23          1           0        3.327317   -1.042265    0.000000
     24          1           0        1.885580    1.025372    0.860135
     25          1           0        1.885580    1.025372   -0.860135
 ---------------------------------------------------------------------

 SCF Done:  E(RM062X) =  -539.759800519     A.U. after   15 cycles

 Excitation energies and oscillator strengths:

 Excited State   1:      Singlet-A'     2.8088 eV  441.42 nm  f=0.0274  <S**2>=0.000
      47 -> 48         0.70410
 This state for optimization and/or second-order correction.
 Total Energy, E(TD-HF/TD-DFT) =  -539.656580797
 Copying the excited state density for this state as the 1-particle RhoCI density.

 The electronic state is 1-A'.
 Alpha  occ. eigenvalues --  -10.77664 -10.73397 -10.73108 -10.72554 -10.72320
 Alpha  occ. eigenvalues --  -10.71505 -10.71263 -10.71231 -10.70986 -10.70748
 Alpha  occ. eigenvalues --  -10.70038 -10.69907 -10.69715 -10.69551  -1.16437
 Alpha  occ. eigenvalues --   -1.12458  -1.06945  -1.05718  -1.01311  -1.00187
 Alpha  occ. eigenvalues --   -0.95768  -0.91049  -0.86418  -0.85897  -0.83809
 Alpha  occ. eigenvalues --   -0.78393  -0.76024  -0.74413  -0.69584  -0.69248
 Alpha  occ. eigenvalues --   -0.68485  -0.68178  -0.68105  -0.64784  -0.64270
 Alpha  occ. eigenvalues --   -0.63017  -0.61846  -0.60075  -0.59618  -0.59101
 Alpha  occ. eigenvalues --   -0.56894  -0.55225  -0.54806  -0.52440  -0.46673
 Alpha  occ. eigenvalues --   -0.46067  -0.44445
 Alpha virt. eigenvalues --   -0.26094  -0.14667  -0.14097  -0.12773  -0.11178
 Alpha virt. eigenvalues --   -0.10085  -0.09232  -0.07981  -0.07969  -0.07476
 Alpha virt. eigenvalues --   -0.07202  -0.07143  -0.05644  -0.05580  -0.05333

 Mulliken charges:
               1
     1  C    0.098328
     2  C   -0.408337
     3  C   -0.441404
     4  C    0.006975
     5  C    0.016290
     6  C   -0.438415
     7  C   -0.405206
     8  C    0.086631
     9  C   -0.339594
    10  C    0.089748
    11  C   -0.628565
    12  C    0.685679
    13  C   -0.641215
    14  C    0.699932
    15  H    0.236760
    16  H    0.255132
    17  H    0.247966
    18  H    0.221110
    19  H    0.190396
    20  H    0.222955
    21  H    0.249761
    22  H    0.257395
    23  H    0.238053
    24  H    0.249813
    25  H    0.249813
 Sum of Mulliken charges =   1.00000

 Dipole moment (field-independent basis, Debye):
    X=             -0.0341    Y=             -0.3359    Z=              0.0000  Tot=              0.3376
 Quadrupole moment (field-independent basis, Debye-Ang):
   XX=            -50.7904   YY=            -36.5740   ZZ=            -84.1415
   XY=            -10.3865   XZ=              0.0000   YZ=              0.0000

 Normal termination of Gaussian 16 at Tue Aug  2 12:08:32 2022.
