 Gaussian 16, Revision C.01,
 Gaussian 16:  ES64L-G16RevC.01  3-Jul-2019

 ---------------------------------------------------------------
 #n M062X/6-311++G(d,p) TD(NStates=1) EmpiricalDispersion=GD3 SP
 ---------------------------------------------------------------

 ------
 SP_150
 ------
 Symbolic Z-matrix:
 Charge =  1 Multiplicity = 1

                         Standard orientation:
 ---------------------------------------------------------------------
 Center     Atomic      Atomic             Coordinates (Angstroms)
 Number     Number       Type             X           Y           Z
 ---------------------------------------------------------------------
      1          6           0        0.099754   -2.816550    0.000000
      2          6           0        1.320937   -3.486912    0.000000
      3          6           0        2.522666   -2.774198    0.000000
      4          6           0        2.505053   -1.408545    0.000000
      5          6           0       -0.056511    2.799808    0.000000
      6          6           0       -1.304683    3.523013    0.000000
      7          6           0       -2.506537    2.852174    0.000000
      8          6           0       -2.460670    1.465442    0.000000
      9          6           0       -1.259432   -0.734308    0.000000
     10          6           0        1.251888    0.691651    0.000000
     11          6           0        0.058309   -1.445530    0.000000
     12          6           0        1.274876   -0.702796    0.000000
     13          6           0       -1.212011    0.736182    0.000000
     14          6           0        0.000000    1.417604    0.000000
     15          1           0       -0.821809   -3.385353    0.000000
     16          1           0        1.336229   -4.567528    0.000000
     17          1           0        3.462901   -3.307032    0.000000
     18          1           0        3.426932   -0.842012    0.000000
     19          1           0        2.177436    1.250118    0.000000
     20          1           0        0.862123    3.373709    0.000000
     21          1           0       -1.270638    4.604091    0.000000
     22          1           0       -3.447701    3.379491    0.000000
     23          1           0       -3.378347    0.888979    0.000000
     24          1           0       -1.874481   -1.048343    0.860685
     25          1           0       -1.874481   -1.048343   -0.860685
 ---------------------------------------------------------------------

 SCF Done:  E(RM062X) =  -539.753325545     A.U. after   16 cycles

 Excitation energies and oscillator strengths:

 Excited State   1:      Singlet-A'     2.6537 eV  467.22 nm  f=0.0191  <S**2>=0.000
      47 -> 48         0.70351
 This state for optimization and/or second-order correction.
 Total Energy, E(TD-HF/TD-DFT) =  -539.655804887
 Copying the excited state density for this state as the 1-particle RhoCI density.

 The electronic state is 1-A'.
 Alpha  occ. eigenvalues --  -10.77581 -10.73829 -10.72863 -10.72677 -10.72068
 Alpha  occ. eigenvalues --  -10.71936 -10.71884 -10.70998 -10.70797 -10.70235
 Alpha  occ. eigenvalues --  -10.70019 -10.69958 -10.69713 -10.69309  -1.16529
 Alpha  occ. eigenvalues --   -1.12458  -1.06937  -1.05829  -1.01283  -1.00408
 Alpha  occ. eigenvalues --   -0.95553  -0.91017  -0.86441  -0.85883  -0.83767
 Alpha  occ. eigenvalues --   -0.78324  -0.76129  -0.74360  -0.69805  -0.69322
 Alpha  occ. eigenvalues --   -0.68290  -0.68097  -0.68048  -0.65283  -0.64224
 Alpha  occ. eigenvalues --   -0.62715  -0.61555  -0.60491  -0.59238  -0.59171
 Alpha  occ. eigenvalues --   -0.56936  -0.55266  -0.54518  -0.52443  -0.47334
 Alpha  occ. eigenvalues --   -0.46128  -0.43762
 Alpha virt. eigenvalues --   -0.26115  -0.14664  -0.14076  -0.12761  -0.11190
 Alpha virt. eigenvalues --   -0.10092  -0.09261  -0.07958  -0.07928  -0.07484
 Alpha virt. eigenvalues --   -0.07210  -0.07133  -0.05648  -0.05572  -0.05353

 Mulliken charges:
               1
     1  C    0.071300
     2  C   -0.400673
     3  C   -0.432071
     4  C    0.024760
     5  C   -0.010549
     6  C   -0.444551
     7  C   -0.413329
     8  C    0.116069
     9  C   -0.351953
    10  C    0.077656
    11  C   -0.653331
    12  C    0.722865
    13  C   -0.596052
    14  C    0.670730
    15  H    0.240204
    16  H    0.260720
    17  H    0.252405
    18  H    0.225760
    19  H    0.189568
    20  H    0.218604
    21  H    0.245279
    22  H    0.251722
    23  H    0.235156
    24  H    0.249855
    25  H    0.249855
 Sum of Mulliken charges =   1.00000

 Dipole moment (field-independent basis, Debye):
    X=              0.7212    Y=             -0.8680    Z=              0.0000  Tot=              1.1285
 Quadrupole moment (field-independent basis, Debye-Ang):
   XX=            -49.1337   YY=            -38.1288   ZZ=            -84.1314
   XY=            -11.4117   XZ=             -0.0000   YZ=             -0.0000

 Normal termination of Gaussian 16 at Tue Aug  2 13:30:11 2022.
