 Gaussian 16, Revision C.01,
 Gaussian 16:  ES64L-G16RevC.01  3-Jul-2019

 ---------------------------------------------------------------
 #n M062X/6-311++G(d,p) TD(NStates=1) EmpiricalDispersion=GD3 SP
 ---------------------------------------------------------------

 -----
 SP_75
 -----
 Symbolic Z-matrix:
 Charge =  1 Multiplicity = 1

                         Standard orientation:
 ---------------------------------------------------------------------
 Center     Atomic      Atomic             Coordinates (Angstroms)
 Number     Number       Type             X           Y           Z
 ---------------------------------------------------------------------
      1          6           0        1.359533    2.495510    0.000000
      2          6           0        0.671466    3.702938    0.000000
      3          6           0       -0.715328    3.684766    0.000000
      4          6           0       -1.407836    2.463311    0.000000
      5          6           0       -1.407836   -2.463301    0.000000
      6          6           0       -0.715328   -3.684756    0.000000
      7          6           0        0.671466   -3.702928    0.000000
      8          6           0        1.359533   -2.495500    0.000000
      9          6           0        1.459971   -0.000070    0.000000
     10          6           0       -1.429487    0.000005    0.000000
     11          6           0        0.677142    1.262285    0.000000
     12          6           0       -0.730352    1.236876    0.000000
     13          6           0        0.677142   -1.262275    0.000000
     14          6           0       -0.730352   -1.236866    0.000000
     15          1           0        2.442674    2.491376    0.000000
     16          1           0        1.210566    4.638483    0.000000
     17          1           0       -1.274222    4.609717    0.000000
     18          1           0       -2.490282    2.467105    0.000000
     19          1           0       -2.510414    0.000005    0.000000
     20          1           0       -2.490282   -2.467095    0.000000
     21          1           0       -1.274222   -4.609707    0.000000
     22          1           0        1.210566   -4.638473    0.000000
     23          1           0        2.442674   -2.491366    0.000000
     24          1           0        2.147289    0.000005    0.861235
     25          1           0        2.147289    0.000005   -0.861235
 ---------------------------------------------------------------------

 SCF Done:  E(RM062X) =  -539.760274112     A.U. after   15 cycles

 Excitation energies and oscillator strengths:

 Excited State   1:      Singlet-A'     2.8234 eV  439.13 nm  f=0.0284  <S**2>=0.000
      47 -> 48         0.70426
 This state for optimization and/or second-order correction.
 Total Energy, E(TD-HF/TD-DFT) =  -539.656515659
 Copying the excited state density for this state as the 1-particle RhoCI density.

 The electronic state is 1-A'.
 Alpha  occ. eigenvalues --  -10.77679 -10.73280 -10.73279 -10.72450 -10.72448
 Alpha  occ. eigenvalues --  -10.71373 -10.71372 -10.71001 -10.70998 -10.70998
 Alpha  occ. eigenvalues --  -10.69974 -10.69973 -10.69640 -10.69640  -1.16404
 Alpha  occ. eigenvalues --   -1.12440  -1.06945  -1.05668  -1.01313  -1.00140
 Alpha  occ. eigenvalues --   -0.95787  -0.91041  -0.86413  -0.85888  -0.83804
 Alpha  occ. eigenvalues --   -0.78393  -0.75992  -0.74414  -0.69578  -0.69236
 Alpha  occ. eigenvalues --   -0.68492  -0.68177  -0.68115  -0.64730  -0.64267
 Alpha  occ. eigenvalues --   -0.63008  -0.61863  -0.60047  -0.59662  -0.59101
 Alpha  occ. eigenvalues --   -0.56877  -0.55224  -0.54810  -0.52443  -0.46603
 Alpha  occ. eigenvalues --   -0.46056  -0.44523
 Alpha virt. eigenvalues --   -0.26103  -0.14665  -0.14099  -0.12776  -0.11177
 Alpha virt. eigenvalues --   -0.10081  -0.09230  -0.07983  -0.07978  -0.07475
 Alpha virt. eigenvalues --   -0.07198  -0.07143  -0.05645  -0.05579  -0.05329

 Mulliken charges:
               1
     1  C    0.091735
     2  C   -0.406078
     3  C   -0.440073
     4  C    0.005873
     5  C    0.005841
     6  C   -0.440074
     7  C   -0.406123
     8  C    0.091667
     9  C   -0.349463
    10  C    0.084181
    11  C   -0.630637
    12  C    0.702628
    13  C   -0.630710
    14  C    0.702672
    15  H    0.237586
    16  H    0.256188
    17  H    0.248801
    18  H    0.222055
    19  H    0.190584
    20  H    0.222055
    21  H    0.248800
    22  H    0.256189
    23  H    0.237588
    24  H    0.249358
    25  H    0.249358
 Sum of Mulliken charges =   1.00000

 Dipole moment (field-independent basis, Debye):
    X=             -0.1929    Y=              0.0000    Z=              0.0000  Tot=              0.1929
 Quadrupole moment (field-independent basis, Debye-Ang):
   XX=            -56.2723   YY=            -31.0820   ZZ=            -84.1432
   XY=              0.0001   XZ=              0.0000   YZ=             -0.0000

 Normal termination of Gaussian 16 at Tue Aug  2 12:52:21 2022.
