 Gaussian 16, Revision C.01,
 Gaussian 16:  ES64L-G16RevC.01  3-Jul-2019

 ---------------------------------------------------------------
 #n M062X/6-311++G(d,p) TD(NStates=1) EmpiricalDispersion=GD3 SP
 ---------------------------------------------------------------

 -------
 SP_-150
 -------
 Symbolic Z-matrix:
 Charge =  1 Multiplicity = 1

                         Standard orientation:
 ---------------------------------------------------------------------
 Center     Atomic      Atomic             Coordinates (Angstroms)
 Number     Number       Type             X           Y           Z
 ---------------------------------------------------------------------
      1          6           0       -1.362228   -2.486946    0.000000
      2          6           0       -0.673036   -3.698649    0.000000
      3          6           0        0.710833   -3.682052    0.000000
      4          6           0        1.406941   -2.462847    0.000000
      5          6           0        1.406941    2.462865    0.000000
      6          6           0        0.710833    3.682070    0.000000
      7          6           0       -0.673036    3.698667    0.000000
      8          6           0       -1.362228    2.486964    0.000000
      9          6           0       -1.440166   -0.000141    0.000000
     10          6           0        1.428592    0.000009    0.000000
     11          6           0       -0.676912   -1.261596    0.000000
     12          6           0        0.731707   -1.238662    0.000000
     13          6           0       -0.676912    1.261614    0.000000
     14          6           0        0.731707    1.238680    0.000000
     15          1           0       -2.445594   -2.481462    0.000000
     16          1           0       -1.213936   -4.633294    0.000000
     17          1           0        1.268602   -4.608353    0.000000
     18          1           0        2.489612   -2.468441    0.000000
     19          1           0        2.509969    0.000009    0.000000
     20          1           0        2.489612    2.468459    0.000000
     21          1           0        1.268602    4.608371    0.000000
     22          1           0       -1.213936    4.633312    0.000000
     23          1           0       -2.445594    2.481480    0.000000
     24          1           0       -2.142784    0.000009    0.856285
     25          1           0       -2.142784    0.000009   -0.856285
 ---------------------------------------------------------------------

 SCF Done:  E(RM062X) =  -539.759921354     A.U. after   15 cycles

 Excitation energies and oscillator strengths:

 Excited State   1:      Singlet-A'     2.8212 eV  439.47 nm  f=0.0293  <S**2>=0.000
      47 -> 48         0.70426
 This state for optimization and/or second-order correction.
 Total Energy, E(TD-HF/TD-DFT) =  -539.656242340
 Copying the excited state density for this state as the 1-particle RhoCI density.

 The electronic state is 1-A'.
 Alpha  occ. eigenvalues --  -10.77638 -10.73163 -10.73161 -10.72410 -10.72408
 Alpha  occ. eigenvalues --  -10.71360 -10.71360 -10.71017 -10.71017 -10.70940
 Alpha  occ. eigenvalues --  -10.69970 -10.69969 -10.69609 -10.69609  -1.16520
 Alpha  occ. eigenvalues --   -1.12517  -1.06944  -1.05855  -1.01315  -1.00275
 Alpha  occ. eigenvalues --   -0.95771  -0.91088  -0.86428  -0.85930  -0.83841
 Alpha  occ. eigenvalues --   -0.78412  -0.76100  -0.74426  -0.69525  -0.69266
 Alpha  occ. eigenvalues --   -0.68530  -0.68223  -0.68081  -0.64757  -0.64318
 Alpha  occ. eigenvalues --   -0.63180  -0.61874  -0.59915  -0.59715  -0.59074
 Alpha  occ. eigenvalues --   -0.56936  -0.55192  -0.54895  -0.52428  -0.46672
 Alpha  occ. eigenvalues --   -0.46056  -0.44456
 Alpha virt. eigenvalues --   -0.26059  -0.14677  -0.14094  -0.12767  -0.11184
 Alpha virt. eigenvalues --   -0.10096  -0.09230  -0.07984  -0.07955  -0.07478
 Alpha virt. eigenvalues --   -0.07214  -0.07151  -0.05639  -0.05586  -0.05338

 Mulliken charges:
               1
     1  C    0.092323
     2  C   -0.406177
     3  C   -0.440208
     4  C    0.035093
     5  C    0.035160
     6  C   -0.440205
     7  C   -0.406082
     8  C    0.092457
     9  C   -0.302294
    10  C    0.109052
    11  C   -0.641696
    12  C    0.646354
    13  C   -0.641503
    14  C    0.646265
    15  H    0.236584
    16  H    0.256557
    17  H    0.249070
    18  H    0.221993
    19  H    0.190045
    20  H    0.221994
    21  H    0.249072
    22  H    0.256557
    23  H    0.236581
    24  H    0.251503
    25  H    0.251503
 Sum of Mulliken charges =   1.00000

 Dipole moment (field-independent basis, Debye):
    X=              0.1766    Y=              0.0000    Z=              0.0000  Tot=              0.1766
 Quadrupole moment (field-independent basis, Debye-Ang):
   XX=            -56.2432   YY=            -31.1864   ZZ=            -84.1390
   XY=             -0.0001   XZ=             -0.0000   YZ=             -0.0000

 Normal termination of Gaussian 16 at Tue Aug  2 10:33:13 2022.
