 Gaussian 16, Revision C.01,
 Gaussian 16:  ES64L-G16RevC.01  3-Jul-2019

 ---------------------------------------------------------------
 #n M062X/6-311++G(d,p) TD(NStates=1) EmpiricalDispersion=GD3 SP
 ---------------------------------------------------------------

 -----
 SP_75
 -----
 Symbolic Z-matrix:
 Charge =  1 Multiplicity = 1

                         Standard orientation:
 ---------------------------------------------------------------------
 Center     Atomic      Atomic             Coordinates (Angstroms)
 Number     Number       Type             X           Y           Z
 ---------------------------------------------------------------------
      1          6           0       -2.354985   -1.544446    0.000000
      2          6           0       -2.294336   -2.937627    0.000000
      3          6           0       -1.062443   -3.594770    0.000000
      4          6           0        0.096350   -2.872000    0.000000
      5          6           0        2.363331    1.501750    0.000000
      6          6           0        2.332091    2.943891    0.000000
      7          6           0        1.135434    3.621951    0.000000
      8          6           0       -0.026994    2.861781    0.000000
      9          6           0       -1.275605    0.692099    0.000000
     10          6           0        1.240774   -0.710795    0.000000
     11          6           0       -1.205051   -0.800074    0.000000
     12          6           0        0.061256   -1.455210    0.000000
     13          6           0        0.000000    1.417844    0.000000
     14          6           0        1.212309    0.736232    0.000000
     15          1           0       -3.319400   -1.051630    0.000000
     16          1           0       -3.210391   -3.511122    0.000000
     17          1           0       -1.030302   -4.675217    0.000000
     18          1           0        1.058919   -3.366397    0.000000
     19          1           0        2.198701   -1.212021    0.000000
     20          1           0        3.331072    1.015012    0.000000
     21          1           0        3.273640    3.476576    0.000000
     22          1           0        1.096883    4.700121    0.000000
     23          1           0       -0.996359    3.346503    0.000000
     24          1           0       -1.867772    1.057207    0.859035
     25          1           0       -1.867772    1.057207   -0.859035
 ---------------------------------------------------------------------

 SCF Done:  E(RM062X) =  -539.753216321     A.U. after   15 cycles

 Excitation energies and oscillator strengths:

 Excited State   1:      Singlet-A'     2.6556 eV  466.87 nm  f=0.0195  <S**2>=0.000
      47 -> 48         0.70347
 This state for optimization and/or second-order correction.
 Total Energy, E(TD-HF/TD-DFT) =  -539.655623449
 Copying the excited state density for this state as the 1-particle RhoCI density.

 The electronic state is 1-A'.
 Alpha  occ. eigenvalues --  -10.77568 -10.73786 -10.72850 -10.72641 -10.72074
 Alpha  occ. eigenvalues --  -10.71923 -10.71882 -10.70977 -10.70792 -10.70232
 Alpha  occ. eigenvalues --  -10.70025 -10.69949 -10.69714 -10.69298  -1.16566
 Alpha  occ. eigenvalues --   -1.12484  -1.06936  -1.05891  -1.01284  -1.00451
 Alpha  occ. eigenvalues --   -0.95550  -0.91033  -0.86446  -0.85897  -0.83779
 Alpha  occ. eigenvalues --   -0.78331  -0.76163  -0.74366  -0.69794  -0.69329
 Alpha  occ. eigenvalues --   -0.68302  -0.68086  -0.68063  -0.65299  -0.64239
 Alpha  occ. eigenvalues --   -0.62747  -0.61575  -0.60469  -0.59233  -0.59165
 Alpha  occ. eigenvalues --   -0.56953  -0.55266  -0.54536  -0.52438  -0.47350
 Alpha  occ. eigenvalues --   -0.46124  -0.43751
 Alpha virt. eigenvalues --   -0.26100  -0.14668  -0.14075  -0.12758  -0.11193
 Alpha virt. eigenvalues --   -0.10097  -0.09261  -0.07959  -0.07920  -0.07485
 Alpha virt. eigenvalues --   -0.07215  -0.07136  -0.05646  -0.05575  -0.05356

 Mulliken charges:
               1
     1  C    0.071371
     2  C   -0.401151
     3  C   -0.432689
     4  C    0.034876
     5  C   -0.003001
     6  C   -0.444081
     7  C   -0.414183
     8  C    0.118456
     9  C   -0.336634
    10  C    0.087056
    11  C   -0.656987
    12  C    0.709866
    13  C   -0.605946
    14  C    0.652994
    15  H    0.239915
    16  H    0.260818
    17  H    0.252500
    18  H    0.225821
    19  H    0.189359
    20  H    0.218456
    21  H    0.245357
    22  H    0.251845
    23  H    0.234857
    24  H    0.250562
    25  H    0.250562
 Sum of Mulliken charges =   1.00000

 Dipole moment (field-independent basis, Debye):
    X=             -0.3719    Y=             -1.0640    Z=             -0.0000  Tot=              1.1271
 Quadrupole moment (field-independent basis, Debye-Ang):
   XX=            -51.2214   YY=            -36.0660   ZZ=            -84.1299
   XY=             10.1254   XZ=             -0.0000   YZ=              0.0000

 Normal termination of Gaussian 16 at Tue Aug  2 12:43:36 2022.
