 Gaussian 16, Revision C.01,
 Gaussian 16:  ES64L-G16RevC.01  3-Jul-2019

 ---------------------------------------------------------------
 #n M062X/6-311++G(d,p) TD(NStates=1) EmpiricalDispersion=GD3 SP
 ---------------------------------------------------------------

 ------
 SP_-50
 ------
 Symbolic Z-matrix:
 Charge =  1 Multiplicity = 1

                         Standard orientation:
 ---------------------------------------------------------------------
 Center     Atomic      Atomic             Coordinates (Angstroms)
 Number     Number       Type             X           Y           Z
 ---------------------------------------------------------------------
      1          6           0        0.022514    2.844664    0.000000
      2          6           0       -1.151979    3.589808    0.000000
      3          6           0       -2.360593    2.917506    0.000000
      4          6           0       -2.394338    1.504281    0.000000
      5          6           0       -0.080843   -2.844902    0.000000
      6          6           0        1.100292   -3.586102    0.000000
      7          6           0        2.330091   -2.942100    0.000000
      8          6           0        2.371519   -1.550396    0.000000
      9          6           0        1.277937    0.687593    0.000000
     10          6           0       -1.254613   -0.684395    0.000000
     11          6           0        0.000000    1.428545    0.000000
     12          6           0       -1.224989    0.742860    0.000000
     13          6           0        1.196186   -0.793970    0.000000
     14          6           0       -0.059521   -1.440944    0.000000
     15          1           0        0.982463    3.346822    0.000000
     16          1           0       -1.117106    4.668815    0.000000
     17          1           0       -3.293167    3.464354    0.000000
     18          1           0       -3.353369    1.001775    0.000000
     19          1           0       -2.208609   -1.193047    0.000000
     20          1           0       -1.035324   -3.355394    0.000000
     21          1           0        1.051399   -4.665861    0.000000
     22          1           0        3.247502   -3.512066    0.000000
     23          1           0        3.326874   -1.039958    0.000000
     24          1           0        1.884679    1.024934    0.859035
     25          1           0        1.884679    1.024934   -0.859035
 ---------------------------------------------------------------------

 SCF Done:  E(RM062X) =  -539.759746220     A.U. after   15 cycles

 Excitation energies and oscillator strengths:

 Excited State   1:      Singlet-A'     2.8086 eV  441.45 nm  f=0.0276  <S**2>=0.000
      47 -> 48         0.70410
 This state for optimization and/or second-order correction.
 Total Energy, E(TD-HF/TD-DFT) =  -539.656533753
 Copying the excited state density for this state as the 1-particle RhoCI density.

 The electronic state is 1-A'.
 Alpha  occ. eigenvalues --  -10.77656 -10.73371 -10.73082 -10.72545 -10.72312
 Alpha  occ. eigenvalues --  -10.71503 -10.71267 -10.71228 -10.70972 -10.70752
 Alpha  occ. eigenvalues --  -10.70037 -10.69907 -10.69708 -10.69544  -1.16462
 Alpha  occ. eigenvalues --   -1.12475  -1.06944  -1.05760  -1.01312  -1.00217
 Alpha  occ. eigenvalues --   -0.95764  -0.91059  -0.86422  -0.85906  -0.83817
 Alpha  occ. eigenvalues --   -0.78397  -0.76048  -0.74416  -0.69573  -0.69254
 Alpha  occ. eigenvalues --   -0.68494  -0.68188  -0.68097  -0.64791  -0.64281
 Alpha  occ. eigenvalues --   -0.63054  -0.61849  -0.60052  -0.59624  -0.59095
 Alpha  occ. eigenvalues --   -0.56907  -0.55219  -0.54824  -0.52436  -0.46688
 Alpha  occ. eigenvalues --   -0.46066  -0.44432
 Alpha virt. eigenvalues --   -0.26084  -0.14670  -0.14096  -0.12772  -0.11180
 Alpha virt. eigenvalues --   -0.10088  -0.09232  -0.07981  -0.07964  -0.07477
 Alpha virt. eigenvalues --   -0.07205  -0.07145  -0.05642  -0.05582  -0.05335

 Mulliken charges:
               1
     1  C    0.099131
     2  C   -0.408663
     3  C   -0.441340
     4  C    0.012941
     5  C    0.022736
     6  C   -0.438555
     7  C   -0.405395
     8  C    0.087098
     9  C   -0.329113
    10  C    0.095628
    11  C   -0.632324
    12  C    0.673401
    13  C   -0.643861
    14  C    0.688536
    15  H    0.236546
    16  H    0.255214
    17  H    0.248024
    18  H    0.221070
    19  H    0.190274
    20  H    0.222950
    21  H    0.249822
    22  H    0.257472
    23  H    0.237840
    24  H    0.250283
    25  H    0.250283
 Sum of Mulliken charges =   1.00000

 Dipole moment (field-independent basis, Debye):
    X=             -0.0309    Y=             -0.3341    Z=              0.0000  Tot=              0.3356
 Quadrupole moment (field-independent basis, Debye-Ang):
   XX=            -50.7901   YY=            -36.5908   ZZ=            -84.1406
   XY=            -10.3745   XZ=              0.0000   YZ=              0.0000

 Normal termination of Gaussian 16 at Tue Aug  2 11:38:03 2022.
