 Gaussian 16, Revision C.01,
 Gaussian 16:  ES64L-G16RevC.01  3-Jul-2019

 ---------------------------------------------------------------
 #n M062X/6-311++G(d,p) TD(NStates=1) EmpiricalDispersion=GD3 SP
 ---------------------------------------------------------------

 ------
 SP_100
 ------
 Symbolic Z-matrix:
 Charge =  1 Multiplicity = 1

                         Standard orientation:
 ---------------------------------------------------------------------
 Center     Atomic      Atomic             Coordinates (Angstroms)
 Number     Number       Type             X           Y           Z
 ---------------------------------------------------------------------
      1          6           0       -2.360831   -1.548424    0.000000
      2          6           0       -2.306355   -2.940174    0.000000
      3          6           0       -1.074435   -3.592922    0.000000
      4          6           0        0.091302   -2.863159    0.000000
      5          6           0        2.373866    1.502638    0.000000
      6          6           0        2.342753    2.935200    0.000000
      7          6           0        1.141704    3.611929    0.000000
      8          6           0       -0.024087    2.857469    0.000000
      9          6           0       -1.280254    0.692670    0.000000
     10          6           0        1.245534   -0.702062    0.000000
     11          6           0       -1.202209   -0.798148    0.000000
     12          6           0        0.060594   -1.449960    0.000000
     13          6           0        0.000000    1.421562    0.000000
     14          6           0        1.216064    0.738250    0.000000
     15          1           0       -3.322344   -1.050023    0.000000
     16          1           0       -3.222599   -3.512864    0.000000
     17          1           0       -1.036341   -4.672969    0.000000
     18          1           0        1.051338   -3.362544    0.000000
     19          1           0        2.202072   -1.205711    0.000000
     20          1           0        3.338492    1.010314    0.000000
     21          1           0        3.281367    3.472220    0.000000
     22          1           0        1.104816    4.690368    0.000000
     23          1           0       -0.990150    3.348245    0.000000
     24          1           0       -1.874259    1.046878    0.860135
     25          1           0       -1.874259    1.046878   -0.860135
 ---------------------------------------------------------------------

 SCF Done:  E(RM062X) =  -539.756334851     A.U. after   15 cycles

 Excitation energies and oscillator strengths:

 Excited State   1:      Singlet-A'     2.7168 eV  456.35 nm  f=0.0217  <S**2>=0.000
      47 -> 48         0.70361
 This state for optimization and/or second-order correction.
 Total Energy, E(TD-HF/TD-DFT) =  -539.656492629
 Copying the excited state density for this state as the 1-particle RhoCI density.

 The electronic state is 1-A'.
 Alpha  occ. eigenvalues --  -10.77618 -10.73678 -10.72813 -10.72764 -10.72066
 Alpha  occ. eigenvalues --  -10.71797 -10.71763 -10.70989 -10.70943 -10.70256
 Alpha  occ. eigenvalues --  -10.70169 -10.69876 -10.69778 -10.69387  -1.16493
 Alpha  occ. eigenvalues --   -1.12462  -1.06940  -1.05788  -1.01296  -1.00317
 Alpha  occ. eigenvalues --   -0.95647  -0.91035  -0.86432  -0.85892  -0.83789
 Alpha  occ. eigenvalues --   -0.78357  -0.76088  -0.74384  -0.69708  -0.69292
 Alpha  occ. eigenvalues --   -0.68376  -0.68106  -0.68098  -0.65087  -0.64241
 Alpha  occ. eigenvalues --   -0.62836  -0.61692  -0.60336  -0.59371  -0.59140
 Alpha  occ. eigenvalues --   -0.56921  -0.55257  -0.54642  -0.52440  -0.47060
 Alpha  occ. eigenvalues --   -0.46109  -0.44037
 Alpha virt. eigenvalues --   -0.26102  -0.14666  -0.14086  -0.12767  -0.11185
 Alpha virt. eigenvalues --   -0.10089  -0.09248  -0.07969  -0.07946  -0.07481
 Alpha virt. eigenvalues --   -0.07207  -0.07139  -0.05646  -0.05576  -0.05344

 Mulliken charges:
               1
     1  C    0.076112
     2  C   -0.402322
     3  C   -0.434547
     4  C    0.024558
     5  C   -0.003069
     6  C   -0.443601
     7  C   -0.411804
     8  C    0.110499
     9  C   -0.343525
    10  C    0.085053
    11  C   -0.650916
    12  C    0.713268
    13  C   -0.611106
    14  C    0.672094
    15  H    0.239417
    16  H    0.259644
    17  H    0.251549
    18  H    0.224841
    19  H    0.189912
    20  H    0.219367
    21  H    0.246186
    22  H    0.252876
    23  H    0.235593
    24  H    0.249959
    25  H    0.249959
 Sum of Mulliken charges =   1.00000

 Dipole moment (field-independent basis, Debye):
    X=             -0.2341    Y=             -0.8246    Z=              0.0000  Tot=              0.8572
 Quadrupole moment (field-independent basis, Debye-Ang):
   XX=            -51.0795   YY=            -36.2348   ZZ=            -84.1358
   XY=             10.2145   XZ=             -0.0000   YZ=              0.0000

 Normal termination of Gaussian 16 at Tue Aug  2 13:01:12 2022.
