 Gaussian 16, Revision C.01,
 Gaussian 16:  ES64L-G16RevC.01  3-Jul-2019

 ---------------------------------------------------------------
 #n M062X/6-311++G(d,p) TD(NStates=1) EmpiricalDispersion=GD3 SP
 ---------------------------------------------------------------

 ------
 SP_125
 ------
 Symbolic Z-matrix:
 Charge =  1 Multiplicity = 1

                         Standard orientation:
 ---------------------------------------------------------------------
 Center     Atomic      Atomic             Coordinates (Angstroms)
 Number     Number       Type             X           Y           Z
 ---------------------------------------------------------------------
      1          6           0        0.098902   -2.806322    0.000000
      2          6           0        1.326375   -3.469970    0.000000
      3          6           0        2.533992   -2.760800    0.000000
      4          6           0        2.520069   -1.409468    0.000000
      5          6           0       -0.062853    2.785657    0.000000
      6          6           0       -1.323172    3.516608    0.000000
      7          6           0       -2.523684    2.852700    0.000000
      8          6           0       -2.468265    1.466091    0.000000
      9          6           0       -1.256216   -0.729065    0.000000
     10          6           0        1.259637    0.678523    0.000000
     11          6           0        0.058268   -1.450733    0.000000
     12          6           0        1.281867   -0.706255    0.000000
     13          6           0       -1.207103    0.733611    0.000000
     14          6           0       -0.000000    1.411099    0.000000
     15          1           0       -0.817811   -3.383027    0.000000
     16          1           0        1.342713   -4.550965    0.000000
     17          1           0        3.470032   -3.301714    0.000000
     18          1           0        3.437567   -0.835949    0.000000
     19          1           0        2.183255    1.240429    0.000000
     20          1           0        0.851189    3.367586    0.000000
     21          1           0       -1.280948    4.598072    0.000000
     22          1           0       -3.465615    3.377984    0.000000
     23          1           0       -3.380880    0.880977    0.000000
     24          1           0       -1.883197   -1.031728    0.859310
     25          1           0       -1.883197   -1.031728   -0.859310
 ---------------------------------------------------------------------

 SCF Done:  E(RM062X) =  -539.747007051     A.U. after   16 cycles

 Excitation energies and oscillator strengths:

 Excited State   1:      Singlet-A'     2.5533 eV  485.58 nm  f=0.0166  <S**2>=0.000
      47 -> 48         0.70340
 This state for optimization and/or second-order correction.
 Total Energy, E(TD-HF/TD-DFT) =  -539.653174004
 Copying the excited state density for this state as the 1-particle RhoCI density.

 The electronic state is 1-A'.
 Alpha  occ. eigenvalues --  -10.77488 -10.73990 -10.72982 -10.72488 -10.72426
 Alpha  occ. eigenvalues --  -10.72053 -10.71716 -10.70985 -10.70568 -10.70328
 Alpha  occ. eigenvalues --  -10.70066 -10.69699 -10.69605 -10.69178  -1.16657
 Alpha  occ. eigenvalues --   -1.12488  -1.06933  -1.06004  -1.01260  -1.00633
 Alpha  occ. eigenvalues --   -0.95382  -0.91000  -0.86465  -0.85885  -0.83742
 Alpha  occ. eigenvalues --   -0.78269  -0.76255  -0.74330  -0.69958  -0.69381
 Alpha  occ. eigenvalues --   -0.68158  -0.68077  -0.67974  -0.65612  -0.64224
 Alpha  occ. eigenvalues --   -0.62579  -0.61336  -0.60701  -0.59207  -0.59032
 Alpha  occ. eigenvalues --   -0.56981  -0.55263  -0.54325  -0.52440  -0.47814
 Alpha  occ. eigenvalues --   -0.46148  -0.43299
 Alpha virt. eigenvalues --   -0.26118  -0.14666  -0.14055  -0.12745  -0.11204
 Alpha virt. eigenvalues --   -0.10104  -0.09286  -0.07939  -0.07882  -0.07493
 Alpha virt. eigenvalues --   -0.07223  -0.07125  -0.05649  -0.05568  -0.05374

 Mulliken charges:
               1
     1  C    0.064865
     2  C   -0.399147
     3  C   -0.428770
     4  C    0.037323
     5  C   -0.012061
     6  C   -0.444923
     7  C   -0.417163
     8  C    0.128300
     9  C   -0.346246
    10  C    0.076928
    11  C   -0.661884
    12  C    0.720071
    13  C   -0.584414
    14  C    0.646943
    15  H    0.241024
    16  H    0.262429
    17  H    0.253807
    18  H    0.227213
    19  H    0.188555
    20  H    0.217330
    21  H    0.244037
    22  H    0.250180
    23  H    0.234199
    24  H    0.250701
    25  H    0.250701
 Sum of Mulliken charges =   1.00000

 Dipole moment (field-independent basis, Debye):
    X=              0.9170    Y=             -1.2283    Z=              0.0000  Tot=              1.5328
 Quadrupole moment (field-independent basis, Debye-Ang):
   XX=            -48.8875   YY=            -38.3076   ZZ=            -84.1201
   XY=            -11.5698   XZ=             -0.0000   YZ=             -0.0000

 Normal termination of Gaussian 16 at Tue Aug  2 13:11:17 2022.
