 Gaussian 16, Revision C.01,
 Gaussian 16:  ES64L-G16RevC.01  3-Jul-2019

 ---------------------------------------------------------------
 #n M062X/6-311++G(d,p) TD(NStates=1) EmpiricalDispersion=GD3 SP
 ---------------------------------------------------------------

 ------
 SP_150
 ------
 Symbolic Z-matrix:
 Charge =  1 Multiplicity = 1

                         Standard orientation:
 ---------------------------------------------------------------------
 Center     Atomic      Atomic             Coordinates (Angstroms)
 Number     Number       Type             X           Y           Z
 ---------------------------------------------------------------------
      1          6           0       -2.364010   -1.551917    0.000000
      2          6           0       -2.312428   -2.942226    0.000000
      3          6           0       -1.079923   -3.592755    0.000000
      4          6           0        0.088930   -2.858872    0.000000
      5          6           0        2.379279    1.503102    0.000000
      6          6           0        2.348900    2.930926    0.000000
      7          6           0        1.145335    3.607436    0.000000
      8          6           0       -0.021621    2.856357    0.000000
      9          6           0       -1.285488    0.694521    0.000000
     10          6           0        1.248068   -0.697754    0.000000
     11          6           0       -1.200862   -0.797291    0.000000
     12          6           0        0.060232   -1.446966    0.000000
     13          6           0        0.000000    1.423537    0.000000
     14          6           0        1.217592    0.739113    0.000000
     15          1           0       -3.324146   -1.050956    0.000000
     16          1           0       -3.228562   -3.514802    0.000000
     17          1           0       -1.038564   -4.672499    0.000000
     18          1           0        1.047810   -3.360451    0.000000
     19          1           0        2.203852   -1.202564    0.000000
     20          1           0        3.342175    1.007756    0.000000
     21          1           0        3.286106    3.469846    0.000000
     22          1           0        1.109597    4.686000    0.000000
     23          1           0       -0.985895    3.350324    0.000000
     24          1           0       -1.878199    1.042043    0.861510
     25          1           0       -1.878199    1.042043   -0.861510
 ---------------------------------------------------------------------

 SCF Done:  E(RM062X) =  -539.757556350     A.U. after   15 cycles

 Excitation energies and oscillator strengths:

 Excited State   1:      Singlet-A'     2.7443 eV  451.80 nm  f=0.0228  <S**2>=0.000
      47 -> 48         0.70371
 This state for optimization and/or second-order correction.
 Total Energy, E(TD-HF/TD-DFT) =  -539.656706767
 Copying the excited state density for this state as the 1-particle RhoCI density.

 The electronic state is 1-A'.
 Alpha  occ. eigenvalues --  -10.77645 -10.73644 -10.72918 -10.72725 -10.72143
 Alpha  occ. eigenvalues --  -10.71703 -10.71656 -10.71020 -10.71006 -10.70371
 Alpha  occ. eigenvalues --  -10.70139 -10.69844 -10.69810 -10.69437  -1.16442
 Alpha  occ. eigenvalues --   -1.12439  -1.06942  -1.05712  -1.01300  -1.00237
 Alpha  occ. eigenvalues --   -0.95691  -0.91028  -0.86423  -0.85882  -0.83786
 Alpha  occ. eigenvalues --   -0.78364  -0.76038  -0.74390  -0.69680  -0.69271
 Alpha  occ. eigenvalues --   -0.68400  -0.68117  -0.68111  -0.64983  -0.64234
 Alpha  occ. eigenvalues --   -0.62852  -0.61735  -0.60287  -0.59437  -0.59133
 Alpha  occ. eigenvalues --   -0.56897  -0.55253  -0.54674  -0.52444  -0.46921
 Alpha  occ. eigenvalues --   -0.46102  -0.44175
 Alpha virt. eigenvalues --   -0.26112  -0.14664  -0.14091  -0.12772  -0.11181
 Alpha virt. eigenvalues --   -0.10084  -0.09243  -0.07972  -0.07960  -0.07478
 Alpha virt. eigenvalues --   -0.07201  -0.07138  -0.05647  -0.05576  -0.05338

 Mulliken charges:
               1
     1  C    0.077604
     2  C   -0.402440
     3  C   -0.435281
     4  C    0.014868
     5  C   -0.006944
     6  C   -0.443364
     7  C   -0.410083
     8  C    0.105175
     9  C   -0.354914
    10  C    0.078864
    11  C   -0.644664
    12  C    0.721909
    13  C   -0.608956
    14  C    0.689726
    15  H    0.239310
    16  H    0.259000
    17  H    0.251027
    18  H    0.224360
    19  H    0.190239
    20  H    0.219883
    21  H    0.246563
    22  H    0.253339
    23  H    0.236114
    24  H    0.249331
    25  H    0.249331
 Sum of Mulliken charges =   1.00000

 Dipole moment (field-independent basis, Debye):
    X=             -0.1631    Y=             -0.7054    Z=              0.0000  Tot=              0.7240
 Quadrupole moment (field-independent basis, Debye-Ang):
   XX=            -51.0081   YY=            -36.3031   ZZ=            -84.1389
   XY=             10.2701   XZ=             -0.0000   YZ=             -0.0000

 Normal termination of Gaussian 16 at Tue Aug  2 13:33:35 2022.
