 Gaussian 16, Revision C.01,
 Gaussian 16:  ES64L-G16RevC.01  3-Jul-2019

 ---------------------------------------------------------------
 #n M062X/6-311++G(d,p) TD(NStates=1) EmpiricalDispersion=GD3 SP
 ---------------------------------------------------------------

 ------
 SP_150
 ------
 Symbolic Z-matrix:
 Charge =  1 Multiplicity = 1

                         Standard orientation:
 ---------------------------------------------------------------------
 Center     Atomic      Atomic             Coordinates (Angstroms)
 Number     Number       Type             X           Y           Z
 ---------------------------------------------------------------------
      1          6           0        1.358634    2.498364    0.000000
      2          6           0        0.670942    3.704367    0.000000
      3          6           0       -0.716827    3.685670    0.000000
      4          6           0       -1.408135    2.463465    0.000000
      5          6           0       -1.408135   -2.463447    0.000000
      6          6           0       -0.716827   -3.685652    0.000000
      7          6           0        0.670942   -3.704349    0.000000
      8          6           0        1.358634   -2.498346    0.000000
      9          6           0        1.466572   -0.000141    0.000000
     10          6           0       -1.429786    0.000009    0.000000
     11          6           0        0.677218    1.262514    0.000000
     12          6           0       -0.729901    1.236280    0.000000
     13          6           0        0.677218   -1.262496    0.000000
     14          6           0       -0.729901   -1.236262    0.000000
     15          1           0        2.441700    2.494680    0.000000
     16          1           0        1.209442    4.640212    0.000000
     17          1           0       -1.276096    4.610171    0.000000
     18          1           0       -2.490506    2.466659    0.000000
     19          1           0       -2.510563    0.000009    0.000000
     20          1           0       -2.490506   -2.466641    0.000000
     21          1           0       -1.276096   -4.610153    0.000000
     22          1           0        1.209442   -4.640194    0.000000
     23          1           0        2.441700   -2.494662    0.000000
     24          1           0        2.148790    0.000009    0.862885
     25          1           0        2.148790    0.000009   -0.862885
 ---------------------------------------------------------------------

 SCF Done:  E(RM062X) =  -539.760238246     A.U. after   14 cycles

 Excitation energies and oscillator strengths:

 Excited State   1:      Singlet-A'     2.8239 eV  439.06 nm  f=0.0281  <S**2>=0.000
      47 -> 48         0.70426
 This state for optimization and/or second-order correction.
 Total Energy, E(TD-HF/TD-DFT) =  -539.656463395
 Copying the excited state density for this state as the 1-particle RhoCI density.

 The electronic state is 1-A'.
 Alpha  occ. eigenvalues --  -10.77692 -10.73320 -10.73319 -10.72463 -10.72461
 Alpha  occ. eigenvalues --  -10.71376 -10.71376 -10.71023 -10.70992 -10.70992
 Alpha  occ. eigenvalues --  -10.69975 -10.69974 -10.69650 -10.69650  -1.16367
 Alpha  occ. eigenvalues --   -1.12415  -1.06946  -1.05604  -1.01312  -1.00095
 Alpha  occ. eigenvalues --   -0.95793  -0.91026  -0.86408  -0.85873  -0.83792
 Alpha  occ. eigenvalues --   -0.78387  -0.75957  -0.74410  -0.69596  -0.69228
 Alpha  occ. eigenvalues --   -0.68478  -0.68161  -0.68128  -0.64721  -0.64250
 Alpha  occ. eigenvalues --   -0.62951  -0.61859  -0.60091  -0.59644  -0.59109
 Alpha  occ. eigenvalues --   -0.56857  -0.55234  -0.54780  -0.52447  -0.46581
 Alpha  occ. eigenvalues --   -0.46055  -0.44544
 Alpha virt. eigenvalues --   -0.26118  -0.14662  -0.14101  -0.12779  -0.11175
 Alpha virt. eigenvalues --   -0.10077  -0.09230  -0.07986  -0.07982  -0.07474
 Alpha virt. eigenvalues --   -0.07193  -0.07139  -0.05647  -0.05577  -0.05327

 Mulliken charges:
               1
     1  C    0.089190
     2  C   -0.404906
     3  C   -0.440055
     4  C   -0.002102
     5  C   -0.002163
     6  C   -0.440059
     7  C   -0.404995
     8  C    0.089054
     9  C   -0.364436
    10  C    0.074619
    11  C   -0.622964
    12  C    0.717075
    13  C   -0.623094
    14  C    0.717162
    15  H    0.237854
    16  H    0.256080
    17  H    0.248717
    18  H    0.222114
    19  H    0.190770
    20  H    0.222114
    21  H    0.248715
    22  H    0.256081
    23  H    0.237858
    24  H    0.248685
    25  H    0.248685
 Sum of Mulliken charges =   1.00000

 Dipole moment (field-independent basis, Debye):
    X=             -0.1980    Y=              0.0000    Z=              0.0000  Tot=              0.1980
 Quadrupole moment (field-independent basis, Debye-Ang):
   XX=            -56.2819   YY=            -31.0488   ZZ=            -84.1445
   XY=              0.0001   XZ=              0.0000   YZ=             -0.0000

 Normal termination of Gaussian 16 at Tue Aug  2 13:39:05 2022.
