 Gaussian 16, Revision C.01,
 Gaussian 16:  ES64L-G16RevC.01  3-Jul-2019

 ---------------------------------------------------------------
 #n M062X/6-311++G(d,p) TD(NStates=1) EmpiricalDispersion=GD3 SP
 ---------------------------------------------------------------

 ------
 SP_-50
 ------
 Symbolic Z-matrix:
 Charge =  1 Multiplicity = 1

                         Standard orientation:
 ---------------------------------------------------------------------
 Center     Atomic      Atomic             Coordinates (Angstroms)
 Number     Number       Type             X           Y           Z
 ---------------------------------------------------------------------
      1          6           0        0.024089    2.857471    0.000000
      2          6           0       -1.141702    3.611933    0.000000
      3          6           0       -2.342751    2.935206    0.000000
      4          6           0       -2.373865    1.502643    0.000000
      5          6           0       -0.091306   -2.863156    0.000000
      6          6           0        1.074430   -3.592920    0.000000
      7          6           0        2.306351   -2.940174    0.000000
      8          6           0        2.360828   -1.548424    0.000000
      9          6           0        1.280276    0.692627    0.000000
     10          6           0       -1.245536   -0.702058    0.000000
     11          6           0        0.000000    1.421564    0.000000
     12          6           0       -1.216064    0.738254    0.000000
     13          6           0        1.202207   -0.798146    0.000000
     14          6           0       -0.060597   -1.449957    0.000000
     15          1           0        0.990152    3.348247    0.000000
     16          1           0       -1.104813    4.690372    0.000000
     17          1           0       -3.281365    3.472227    0.000000
     18          1           0       -3.338492    1.010320    0.000000
     19          1           0       -2.202075   -1.205706    0.000000
     20          1           0       -1.051343   -3.362540    0.000000
     21          1           0        1.036335   -4.672967    0.000000
     22          1           0        3.222594   -3.512865    0.000000
     23          1           0        3.322341   -1.050023    0.000000
     24          1           0        1.874259    1.046879    0.860135
     25          1           0        1.874259    1.046879   -0.860135
 ---------------------------------------------------------------------

 SCF Done:  E(RM062X) =  -539.756335227     A.U. after   15 cycles

 Excitation energies and oscillator strengths:

 Excited State   1:      Singlet-A'     2.7169 eV  456.35 nm  f=0.0217  <S**2>=0.000
      47 -> 48         0.70361
 This state for optimization and/or second-order correction.
 Total Energy, E(TD-HF/TD-DFT) =  -539.656492687
 Copying the excited state density for this state as the 1-particle RhoCI density.

 The electronic state is 1-A'.
 Alpha  occ. eigenvalues --  -10.77618 -10.73678 -10.72814 -10.72764 -10.72066
 Alpha  occ. eigenvalues --  -10.71797 -10.71763 -10.70989 -10.70943 -10.70256
 Alpha  occ. eigenvalues --  -10.70169 -10.69876 -10.69778 -10.69387  -1.16493
 Alpha  occ. eigenvalues --   -1.12462  -1.06940  -1.05788  -1.01296  -1.00317
 Alpha  occ. eigenvalues --   -0.95647  -0.91035  -0.86432  -0.85892  -0.83789
 Alpha  occ. eigenvalues --   -0.78357  -0.76088  -0.74384  -0.69708  -0.69292
 Alpha  occ. eigenvalues --   -0.68376  -0.68106  -0.68098  -0.65087  -0.64241
 Alpha  occ. eigenvalues --   -0.62836  -0.61692  -0.60336  -0.59371  -0.59140
 Alpha  occ. eigenvalues --   -0.56921  -0.55257  -0.54643  -0.52440  -0.47060
 Alpha  occ. eigenvalues --   -0.46109  -0.44037
 Alpha virt. eigenvalues --   -0.26102  -0.14666  -0.14086  -0.12767  -0.11185
 Alpha virt. eigenvalues --   -0.10089  -0.09248  -0.07969  -0.07946  -0.07481
 Alpha virt. eigenvalues --   -0.07207  -0.07139  -0.05646  -0.05576  -0.05344

 Mulliken charges:
               1
     1  C    0.110523
     2  C   -0.411790
     3  C   -0.443600
     4  C   -0.003060
     5  C    0.024546
     6  C   -0.434547
     7  C   -0.402338
     8  C    0.076091
     9  C   -0.343525
    10  C    0.085053
    11  C   -0.611084
    12  C    0.672083
    13  C   -0.650946
    14  C    0.713287
    15  H    0.235592
    16  H    0.252876
    17  H    0.246187
    18  H    0.219367
    19  H    0.189912
    20  H    0.224841
    21  H    0.251549
    22  H    0.259644
    23  H    0.239418
    24  H    0.249960
    25  H    0.249960
 Sum of Mulliken charges =   1.00000

 Dipole moment (field-independent basis, Debye):
    X=              0.2341    Y=             -0.8246    Z=              0.0000  Tot=              0.8572
 Quadrupole moment (field-independent basis, Debye-Ang):
   XX=            -51.0796   YY=            -36.2347   ZZ=            -84.1358
   XY=            -10.2144   XZ=              0.0000   YZ=              0.0000

 Normal termination of Gaussian 16 at Tue Aug  2 11:42:27 2022.
