 Gaussian 16, Revision C.01,
 Gaussian 16:  ES64L-G16RevC.01  3-Jul-2019

 ---------------------------------------------------------------
 #n M062X/6-311++G(d,p) TD(NStates=1) EmpiricalDispersion=GD3 SP
 ---------------------------------------------------------------

 -------
 SP_-125
 -------
 Symbolic Z-matrix:
 Charge =  1 Multiplicity = 1

                         Standard orientation:
 ---------------------------------------------------------------------
 Center     Atomic      Atomic             Coordinates (Angstroms)
 Number     Number       Type             X           Y           Z
 ---------------------------------------------------------------------
      1          6           0       -1.361928   -2.487897    0.000000
      2          6           0       -0.672861   -3.699125    0.000000
      3          6           0        0.711333   -3.682353    0.000000
      4          6           0        1.407041   -2.462898    0.000000
      5          6           0        1.407041    2.462914    0.000000
      6          6           0        0.711333    3.682369    0.000000
      7          6           0       -0.672861    3.699141    0.000000
      8          6           0       -1.361928    2.487913    0.000000
      9          6           0       -1.442366   -0.000117    0.000000
     10          6           0        1.428692    0.000008    0.000000
     11          6           0       -0.676937   -1.261672    0.000000
     12          6           0        0.731557   -1.238463    0.000000
     13          6           0       -0.676937    1.261688    0.000000
     14          6           0        0.731557    1.238479    0.000000
     15          1           0       -2.445269   -2.482563    0.000000
     16          1           0       -1.213561   -4.633870    0.000000
     17          1           0        1.269227   -4.608504    0.000000
     18          1           0        2.489687   -2.468292    0.000000
     19          1           0        2.510019    0.000008    0.000000
     20          1           0        2.489687    2.468308    0.000000
     21          1           0        1.269227    4.608520    0.000000
     22          1           0       -1.213561    4.633886    0.000000
     23          1           0       -2.445269    2.482579    0.000000
     24          1           0       -2.143284    0.000008    0.856835
     25          1           0       -2.143284    0.000008   -0.856835
 ---------------------------------------------------------------------

 SCF Done:  E(RM062X) =  -539.759994925     A.U. after   15 cycles

 Excitation energies and oscillator strengths:

 Excited State   1:      Singlet-A'     2.8216 eV  439.42 nm  f=0.0292  <S**2>=0.000
      47 -> 48         0.70426
 This state for optimization and/or second-order correction.
 Total Energy, E(TD-HF/TD-DFT) =  -539.656304834
 Copying the excited state density for this state as the 1-particle RhoCI density.

 The electronic state is 1-A'.
 Alpha  occ. eigenvalues --  -10.77643 -10.73175 -10.73174 -10.72414 -10.72412
 Alpha  occ. eigenvalues --  -10.71362 -10.71362 -10.71015 -10.71015 -10.70946
 Alpha  occ. eigenvalues --  -10.69970 -10.69970 -10.69612 -10.69612  -1.16507
 Alpha  occ. eigenvalues --   -1.12508  -1.06944  -1.05835  -1.01315  -1.00260
 Alpha  occ. eigenvalues --   -0.95773  -0.91082  -0.86427  -0.85925  -0.83837
 Alpha  occ. eigenvalues --   -0.78410  -0.76088  -0.74425  -0.69531  -0.69262
 Alpha  occ. eigenvalues --   -0.68526  -0.68218  -0.68085  -0.64754  -0.64312
 Alpha  occ. eigenvalues --   -0.63161  -0.61873  -0.59930  -0.59709  -0.59077
 Alpha  occ. eigenvalues --   -0.56929  -0.55196  -0.54886  -0.52430  -0.46664
 Alpha  occ. eigenvalues --   -0.46056  -0.44464
 Alpha virt. eigenvalues --   -0.26063  -0.14676  -0.14095  -0.12768  -0.11183
 Alpha virt. eigenvalues --   -0.10094  -0.09230  -0.07984  -0.07957  -0.07478
 Alpha virt. eigenvalues --   -0.07212  -0.07150  -0.05640  -0.05585  -0.05337

 Mulliken charges:
               1
     1  C    0.092851
     2  C   -0.406487
     3  C   -0.440198
     4  C    0.031482
     5  C    0.031538
     6  C   -0.440196
     7  C   -0.406409
     8  C    0.092964
     9  C   -0.307531
    10  C    0.106734
    11  C   -0.641459
    12  C    0.653487
    13  C   -0.641302
    14  C    0.653412
    15  H    0.236708
    16  H    0.256513
    17  H    0.249040
    18  H    0.221988
    19  H    0.190104
    20  H    0.221989
    21  H    0.249042
    22  H    0.256513
    23  H    0.236705
    24  H    0.251256
    25  H    0.251256
 Sum of Mulliken charges =   1.00000

 Dipole moment (field-independent basis, Debye):
    X=              0.1785    Y=              0.0000    Z=              0.0000  Tot=              0.1785
 Quadrupole moment (field-independent basis, Debye-Ang):
   XX=            -56.2465   YY=            -31.1745   ZZ=            -84.1395
   XY=             -0.0001   XZ=             -0.0000   YZ=              0.0000

 Normal termination of Gaussian 16 at Tue Aug  2 10:48:57 2022.
