 Gaussian 16, Revision C.01,
 Gaussian 16:  ES64L-G16RevC.01  3-Jul-2019

 ---------------------------------------------------------------
 #n M062X/6-311++G(d,p) TD(NStates=1) EmpiricalDispersion=GD3 SP
 ---------------------------------------------------------------

 ------
 SP_100
 ------
 Symbolic Z-matrix:
 Charge =  1 Multiplicity = 1

                         Standard orientation:
 ---------------------------------------------------------------------
 Center     Atomic      Atomic             Coordinates (Angstroms)
 Number     Number       Type             X           Y           Z
 ---------------------------------------------------------------------
      1          6           0        2.498523   -1.348714    0.000000
      2          6           0        3.702024   -0.653573    0.000000
      3          6           0        3.680708    0.734642    0.000000
      4          6           0        2.461192    1.420844    0.000000
      5          6           0       -2.465404    1.394936    0.000000
      6          6           0       -3.689018    0.696492    0.000000
      7          6           0       -3.704233   -0.689206    0.000000
      8          6           0       -2.493392   -1.370055    0.000000
      9          6           0        0.004156   -1.461067    0.000000
     10          6           0        0.000000    1.429551    0.000000
     11          6           0        1.266259   -0.673584    0.000000
     12          6           0        1.236190    0.735943    0.000000
     13          6           0       -1.258368   -0.680704    0.000000
     14          6           0       -1.237327    0.724620    0.000000
     15          1           0        2.501534   -2.431802    0.000000
     16          1           0        4.639898   -1.188837    0.000000
     17          1           0        4.605041    1.294398    0.000000
     18          1           0        2.458119    2.503212    0.000000
     19          1           0       -0.005161    2.510440    0.000000
     20          1           0       -2.475866    2.477397    0.000000
     21          1           0       -4.614447    1.254654    0.000000
     22          1           0       -4.637534   -1.231932    0.000000
     23          1           0       -2.482262   -2.453183    0.000000
     24          1           0        0.001407   -2.147553    0.861510
     25          1           0        0.001407   -2.147553   -0.861510
 ---------------------------------------------------------------------

 SCF Done:  E(RM062X) =  -539.760165140     A.U. after   15 cycles

 Excitation energies and oscillator strengths:

 Excited State   1:      Singlet-A'     2.8198 eV  439.70 nm  f=0.0280  <S**2>=0.000
      47 -> 48         0.70422
 This state for optimization and/or second-order correction.
 Total Energy, E(TD-HF/TD-DFT) =  -539.656541043
 Copying the excited state density for this state as the 1-particle RhoCI density.

 The electronic state is 1-A'.
 Alpha  occ. eigenvalues --  -10.77679 -10.73359 -10.73213 -10.72509 -10.72392
 Alpha  occ. eigenvalues --  -10.71441 -10.71304 -10.71127 -10.71004 -10.70869
 Alpha  occ. eigenvalues --  -10.70007 -10.69941 -10.69682 -10.69601  -1.16400
 Alpha  occ. eigenvalues --   -1.12436  -1.06945  -1.05659  -1.01312  -1.00137
 Alpha  occ. eigenvalues --   -0.95784  -0.91038  -0.86413  -0.85885  -0.83802
 Alpha  occ. eigenvalues --   -0.78391  -0.75988  -0.74412  -0.69586  -0.69236
 Alpha  occ. eigenvalues --   -0.68486  -0.68172  -0.68116  -0.64741  -0.64262
 Alpha  occ. eigenvalues --   -0.62992  -0.61857  -0.60068  -0.59645  -0.59104
 Alpha  occ. eigenvalues --   -0.56875  -0.55228  -0.54799  -0.52443  -0.46613
 Alpha  occ. eigenvalues --   -0.46059  -0.44510
 Alpha virt. eigenvalues --   -0.26106  -0.14665  -0.14099  -0.12776  -0.11177
 Alpha virt. eigenvalues --   -0.10081  -0.09231  -0.07982  -0.07978  -0.07475
 Alpha virt. eigenvalues --   -0.07197  -0.07142  -0.05645  -0.05579  -0.05329

 Mulliken charges:
               1
     1  C    0.088637
     2  C   -0.405159
     3  C   -0.439232
     4  C    0.006698
     5  C    0.002178
     6  C   -0.440847
     7  C   -0.406741
     8  C    0.094073
     9  C   -0.352118
    10  C    0.082458
    11  C   -0.632826
    12  C    0.708475
    13  C   -0.625934
    14  C    0.701921
    15  H    0.237958
    16  H    0.256738
    17  H    0.249234
    18  H    0.222517
    19  H    0.190600
    20  H    0.221614
    21  H    0.248339
    22  H    0.255602
    23  H    0.237317
    24  H    0.249249
    25  H    0.249249
 Sum of Mulliken charges =   1.00000

 Dipole moment (field-independent basis, Debye):
    X=              0.1394    Y=              0.1941    Z=              0.0000  Tot=              0.2389
 Quadrupole moment (field-independent basis, Debye-Ang):
   XX=            -31.0756   YY=            -56.2732   ZZ=            -84.1432
   XY=              0.1769   XZ=             -0.0000   YZ=             -0.0000

 Normal termination of Gaussian 16 at Tue Aug  2 13:06:48 2022.
