 Gaussian 16, Revision C.01,
 Gaussian 16:  ES64L-G16RevC.01  3-Jul-2019

 ---------------------------------------------------------------
 #n M062X/6-311++G(d,p) TD(NStates=1) EmpiricalDispersion=GD3 SP
 ---------------------------------------------------------------

 ------
 SP_-25
 ------
 Symbolic Z-matrix:
 Charge =  1 Multiplicity = 1

                         Standard orientation:
 ---------------------------------------------------------------------
 Center     Atomic      Atomic             Coordinates (Angstroms)
 Number     Number       Type             X           Y           Z
 ---------------------------------------------------------------------
      1          6           0       -2.365666   -1.546405    0.000000
      2          6           0       -2.318093   -2.939577    0.000000
      3          6           0       -1.088368   -3.587994    0.000000
      4          6           0        0.085784   -2.853760    0.000000
      5          6           0        2.383809    1.503419    0.000000
      6          6           0        2.350026    2.926211    0.000000
      7          6           0        1.145834    3.599832    0.000000
      8          6           0       -0.025336    2.848976    0.000000
      9          6           0       -1.273285    0.686986    0.000000
     10          6           0        1.249776   -0.693110    0.000000
     11          6           0       -1.199046   -0.795849    0.000000
     12          6           0        0.060127   -1.446189    0.000000
     13          6           0        0.000000    1.424822    0.000000
     14          6           0        1.221225    0.740849    0.000000
     15          1           0       -3.323949   -1.041521    0.000000
     16          1           0       -3.235326   -3.510332    0.000000
     17          1           0       -1.045449   -4.668108    0.000000
     18          1           0        1.042821   -3.359295    0.000000
     19          1           0        2.205164   -1.199360    0.000000
     20          1           0        3.345979    1.006467    0.000000
     21          1           0        3.285507    3.468686    0.000000
     22          1           0        1.109314    4.678574    0.000000
     23          1           0       -0.988614    3.345113    0.000000
     24          1           0       -1.878089    1.035250    0.857935
     25          1           0       -1.878089    1.035250   -0.857935
 ---------------------------------------------------------------------

 SCF Done:  E(RM062X) =  -539.758352484     A.U. after   15 cycles

 Excitation energies and oscillator strengths:

 Excited State   1:      Singlet-A'     2.7711 eV  447.42 nm  f=0.0252  <S**2>=0.000
      47 -> 48         0.70380
 This state for optimization and/or second-order correction.
 Total Energy, E(TD-HF/TD-DFT) =  -539.656516226
 Copying the excited state density for this state as the 1-particle RhoCI density.

 The electronic state is 1-A'.
 Alpha  occ. eigenvalues --  -10.77629 -10.73484 -10.72911 -10.72644 -10.72178
 Alpha  occ. eigenvalues --  -10.71632 -10.71536 -10.71082 -10.70960 -10.70507
 Alpha  occ. eigenvalues --  -10.70101 -10.69842 -10.69783 -10.69454  -1.16509
 Alpha  occ. eigenvalues --   -1.12494  -1.06942  -1.05828  -1.01307  -1.00296
 Alpha  occ. eigenvalues --   -0.95715  -0.91065  -0.86430  -0.85914  -0.83818
 Alpha  occ. eigenvalues --   -0.78388  -0.76096  -0.74408  -0.69614  -0.69276
 Alpha  occ. eigenvalues --   -0.68458  -0.68169  -0.68088  -0.64929  -0.64275
 Alpha  occ. eigenvalues --   -0.63005  -0.61799  -0.60160  -0.59503  -0.59105
 Alpha  occ. eigenvalues --   -0.56930  -0.55234  -0.54771  -0.52434  -0.46857
 Alpha  occ. eigenvalues --   -0.46085  -0.44252
 Alpha virt. eigenvalues --   -0.26078  -0.14672  -0.14091  -0.12767  -0.11184
 Alpha virt. eigenvalues --   -0.10093  -0.09238  -0.07977  -0.07950  -0.07479
 Alpha virt. eigenvalues --   -0.07211  -0.07146  -0.05642  -0.05582  -0.05341

 Mulliken charges:
               1
     1  C    0.081239
     2  C   -0.403813
     3  C   -0.437093
     4  C    0.034209
     5  C    0.013821
     6  C   -0.442251
     7  C   -0.410498
     8  C    0.105987
     9  C   -0.320026
    10  C    0.099543
    11  C   -0.649968
    12  C    0.684328
    13  C   -0.628382
    14  C    0.652429
    15  H    0.238295
    16  H    0.258673
    17  H    0.250780
    18  H    0.223929
    19  H    0.189966
    20  H    0.220113
    21  H    0.247189
    22  H    0.254171
    23  H    0.235716
    24  H    0.250822
    25  H    0.250822
 Sum of Mulliken charges =   1.00000

 Dipole moment (field-independent basis, Debye):
    X=             -0.1059    Y=             -0.5772    Z=             -0.0000  Tot=              0.5869
 Quadrupole moment (field-independent basis, Debye-Ang):
   XX=            -50.9357   YY=            -36.4433   ZZ=            -84.1375
   XY=             10.2730   XZ=              0.0000   YZ=             -0.0000

 Normal termination of Gaussian 16 at Tue Aug  2 11:46:51 2022.
