 Gaussian 16, Revision C.01,
 Gaussian 16:  ES64L-G16RevC.01  3-Jul-2019

 ---------------------------------------------------------------
 #n M062X/6-311++G(d,p) TD(NStates=1) EmpiricalDispersion=GD3 SP
 ---------------------------------------------------------------

 ------
 SP_-75
 ------
 Symbolic Z-matrix:
 Charge =  1 Multiplicity = 1

                         Standard orientation:
 ---------------------------------------------------------------------
 Center     Atomic      Atomic             Coordinates (Angstroms)
 Number     Number       Type             X           Y           Z
 ---------------------------------------------------------------------
      1          6           0       -2.368164   -1.545898    0.000000
      2          6           0       -2.323977   -2.939534    0.000000
      3          6           0       -1.095154   -3.585774    0.000000
      4          6           0        0.083090   -2.849102    0.000000
      5          6           0        2.388829    1.503814    0.000000
      6          6           0        2.353923    2.921742    0.000000
      7          6           0        1.148047    3.593959    0.000000
      8          6           0       -0.025637    2.845082    0.000000
      9          6           0       -1.270780    0.684654    0.000000
     10          6           0        1.251959   -0.688655    0.000000
     11          6           0       -1.197486   -0.794742    0.000000
     12          6           0        0.059890   -1.444181    0.000000
     13          6           0        0.000000    1.426493    0.000000
     14          6           0        1.223692    0.742099    0.000000
     15          1           0       -3.324852   -1.037855    0.000000
     16          1           0       -3.241635   -3.509419    0.000000
     17          1           0       -1.049724   -4.665893    0.000000
     18          1           0        1.038659   -3.357607    0.000000
     19          1           0        2.206751   -1.196187    0.000000
     20          1           0        3.349711    1.004474    0.000000
     21          1           0        3.287861    3.466859    0.000000
     22          1           0        1.111815    4.672849    0.000000
     23          1           0       -0.987473    3.343950    0.000000
     24          1           0       -1.880250    1.029545    0.857110
     25          1           0       -1.880250    1.029545   -0.857110
 ---------------------------------------------------------------------

 SCF Done:  E(RM062X) =  -539.759024483     A.U. after   15 cycles

 Excitation energies and oscillator strengths:

 Excited State   1:      Singlet-A'     2.7921 eV  444.06 nm  f=0.0268  <S**2>=0.000
      47 -> 48         0.70395
 This state for optimization and/or second-order correction.
 Total Energy, E(TD-HF/TD-DFT) =  -539.656417520
 Copying the excited state density for this state as the 1-particle RhoCI density.

 The electronic state is 1-A'.
 Alpha  occ. eigenvalues --  -10.77632 -10.73394 -10.72965 -10.72584 -10.72234
 Alpha  occ. eigenvalues --  -10.71565 -10.71406 -10.71152 -10.70949 -10.70634
 Alpha  occ. eigenvalues --  -10.70067 -10.69874 -10.69737 -10.69490  -1.16516
 Alpha  occ. eigenvalues --   -1.12505  -1.06943  -1.05844  -1.01311  -1.00290
 Alpha  occ. eigenvalues --   -0.95739  -0.91076  -0.86429  -0.85922  -0.83828
 Alpha  occ. eigenvalues --   -0.78399  -0.76100  -0.74416  -0.69576  -0.69272
 Alpha  occ. eigenvalues --   -0.68489  -0.68193  -0.68084  -0.64861  -0.64292
 Alpha  occ. eigenvalues --   -0.63079  -0.61833  -0.60077  -0.59570  -0.59091
 Alpha  occ. eigenvalues --   -0.56934  -0.55219  -0.54823  -0.52431  -0.46780
 Alpha  occ. eigenvalues --   -0.46074  -0.44336
 Alpha virt. eigenvalues --   -0.26068  -0.14674  -0.14092  -0.12767  -0.11184
 Alpha virt. eigenvalues --   -0.10095  -0.09234  -0.07980  -0.07951  -0.07479
 Alpha virt. eigenvalues --   -0.07212  -0.07148  -0.05640  -0.05584  -0.05340

 Mulliken charges:
               1
     1  C    0.083458
     2  C   -0.404278
     3  C   -0.438086
     4  C    0.037336
     5  C    0.021539
     6  C   -0.441675
     7  C   -0.409393
     8  C    0.102619
     9  C   -0.311214
    10  C    0.104359
    11  C   -0.648308
    12  C    0.670803
    13  C   -0.633532
    14  C    0.645429
    15  H    0.237776
    16  H    0.258174
    17  H    0.250378
    18  H    0.223460
    19  H    0.189985
    20  H    0.220549
    21  H    0.247682
    22  H    0.254802
    23  H    0.235831
    24  H    0.251154
    25  H    0.251154
 Sum of Mulliken charges =   1.00000

 Dipole moment (field-independent basis, Debye):
    X=             -0.0414    Y=             -0.4535    Z=              0.0000  Tot=              0.4554
 Quadrupole moment (field-independent basis, Debye-Ang):
   XX=            -50.8631   YY=            -36.5397   ZZ=            -84.1380
   XY=             10.3075   XZ=             -0.0000   YZ=              0.0000

 Normal termination of Gaussian 16 at Tue Aug  2 11:17:12 2022.
