 Gaussian 16, Revision C.01,
 Gaussian 16:  ES64L-G16RevC.01  3-Jul-2019

 ---------------------------------------------------------------
 #n M062X/6-311++G(d,p) TD(NStates=1) EmpiricalDispersion=GD3 SP
 ---------------------------------------------------------------

 -------
 SP_-150
 -------
 Symbolic Z-matrix:
 Charge =  1 Multiplicity = 1

                         Standard orientation:
 ---------------------------------------------------------------------
 Center     Atomic      Atomic             Coordinates (Angstroms)
 Number     Number       Type             X           Y           Z
 ---------------------------------------------------------------------
      1          6           0        0.027243    2.857873    0.000000
      2          6           0       -1.137718    3.616064    0.000000
      3          6           0       -2.336040    2.939410    0.000000
      4          6           0       -2.368353    1.502142    0.000000
      5          6           0       -0.093589   -2.867360    0.000000
      6          6           0        1.069282   -3.592580    0.000000
      7          6           0        2.300247   -2.937598    0.000000
      8          6           0        2.357497   -1.543934    0.000000
      9          6           0        1.273022    0.689894    0.000000
     10          6           0       -1.242911   -0.706344    0.000000
     11          6           0        0.000000    1.419503    0.000000
     12          6           0       -1.214767    0.737475    0.000000
     13          6           0        1.203508   -0.798948    0.000000
     14          6           0       -0.060984   -1.453208    0.000000
     15          1           0        0.995178    3.345345    0.000000
     16          1           0       -1.099467    4.694382    0.000000
     17          1           0       -3.276032    3.474715    0.000000
     18          1           0       -3.334816    1.012999    0.000000
     19          1           0       -2.200242   -1.208863    0.000000
     20          1           0       -1.054702   -3.364746    0.000000
     21          1           0        1.034643   -4.673011    0.000000
     22          1           0        3.216736   -3.510214    0.000000
     23          1           0        3.320331   -1.047939    0.000000
     24          1           0        1.869880    1.051496    0.858210
     25          1           0        1.869880    1.051496   -0.858210
 ---------------------------------------------------------------------

 SCF Done:  E(RM062X) =  -539.754777704     A.U. after   15 cycles

 Excitation energies and oscillator strengths:

 Excited State   1:      Singlet-A'     2.6882 eV  461.21 nm  f=0.0209  <S**2>=0.000
      47 -> 48         0.70351
 This state for optimization and/or second-order correction.
 Total Energy, E(TD-HF/TD-DFT) =  -539.655986618
 Copying the excited state density for this state as the 1-particle RhoCI density.

 The electronic state is 1-A'.
 Alpha  occ. eigenvalues --  -10.77583 -10.73698 -10.72796 -10.72696 -10.71984
 Alpha  occ. eigenvalues --  -10.71940 -10.71820 -10.70966 -10.70864 -10.70198
 Alpha  occ. eigenvalues --  -10.70145 -10.69905 -10.69746 -10.69333  -1.16559
 Alpha  occ. eigenvalues --   -1.12495  -1.06938  -1.05889  -1.01292  -1.00418
 Alpha  occ. eigenvalues --   -0.95598  -0.91048  -0.86442  -0.85906  -0.83795
 Alpha  occ. eigenvalues --   -0.78351  -0.76153  -0.74380  -0.69738  -0.69316
 Alpha  occ. eigenvalues --   -0.68351  -0.68098  -0.68083  -0.65204  -0.64252
 Alpha  occ. eigenvalues --   -0.62823  -0.61651  -0.60384  -0.59298  -0.59147
 Alpha  occ. eigenvalues --   -0.56951  -0.55262  -0.54607  -0.52435  -0.47216
 Alpha  occ. eigenvalues --   -0.46113  -0.43886
 Alpha virt. eigenvalues --   -0.26089  -0.14670  -0.14080  -0.12760  -0.11191
 Alpha virt. eigenvalues --   -0.10097  -0.09254  -0.07964  -0.07927  -0.07484
 Alpha virt. eigenvalues --   -0.07215  -0.07140  -0.05644  -0.05577  -0.05352

 Mulliken charges:
               1
     1  C    0.115906
     2  C   -0.413443
     3  C   -0.443495
     4  C    0.003868
     5  C    0.038554
     6  C   -0.434125
     7  C   -0.401719
     8  C    0.073585
     9  C   -0.326849
    10  C    0.093622
    11  C   -0.614968
    12  C    0.645678
    13  C   -0.655710
    14  C    0.698642
    15  H    0.234948
    16  H    0.252467
    17  H    0.245839
    18  H    0.218806
    19  H    0.189486
    20  H    0.225376
    21  H    0.252103
    22  H    0.260319
    23  H    0.239400
    24  H    0.250855
    25  H    0.250855
 Sum of Mulliken charges =   1.00000

 Dipole moment (field-independent basis, Debye):
    X=              0.3068    Y=             -0.9420    Z=              0.0000  Tot=              0.9907
 Quadrupole moment (field-independent basis, Debye-Ang):
   XX=            -51.1505   YY=            -36.1728   ZZ=            -84.1319
   XY=            -10.1539   XZ=             -0.0000   YZ=              0.0000

 Normal termination of Gaussian 16 at Tue Aug  2 10:40:58 2022.
