 Gaussian 16, Revision C.01,
 Gaussian 16:  ES64L-G16RevC.01  3-Jul-2019

 ---------------------------------------------------------------
 #n M062X/6-311++G(d,p) TD(NStates=1) EmpiricalDispersion=GD3 SP
 ---------------------------------------------------------------

 -----
 SP_50
 -----
 Symbolic Z-matrix:
 Charge =  1 Multiplicity = 1

                         Standard orientation:
 ---------------------------------------------------------------------
 Center     Atomic      Atomic             Coordinates (Angstroms)
 Number     Number       Type             X           Y           Z
 ---------------------------------------------------------------------
      1          6           0       -2.366175   -1.549407    0.000000
      2          6           0       -2.318228   -2.941143    0.000000
      3          6           0       -1.087380   -3.589524    0.000000
      4          6           0        0.086047   -2.854034    0.000000
      5          6           0        2.384103    1.503467    0.000000
      6          6           0        2.351696    2.926357    0.000000
      7          6           0        1.146873    3.600869    0.000000
      8          6           0       -0.023278    2.851065    0.000000
      9          6           0       -1.279098    0.690117    0.000000
     10          6           0        1.250055   -0.693223    0.000000
     11          6           0       -1.199201   -0.796046    0.000000
     12          6           0        0.060045   -1.445450    0.000000
     13          6           0       -0.000000    1.425053    0.000000
     14          6           0        1.220524    0.740558    0.000000
     15          1           0       -3.324616   -1.044979    0.000000
     16          1           0       -3.235059   -3.512468    0.000000
     17          1           0       -1.043891   -4.669416    0.000000
     18          1           0        1.043312   -3.358980    0.000000
     19          1           0        2.205323   -1.199379    0.000000
     20          1           0        3.345937    1.006044    0.000000
     21          1           0        3.287283    3.468282    0.000000
     22          1           0        1.110996    4.679593    0.000000
     23          1           0       -0.986291    3.347540    0.000000
     24          1           0       -1.879443    1.035903    0.859585
     25          1           0       -1.879443    1.035903   -0.859585
 ---------------------------------------------------------------------

 SCF Done:  E(RM062X) =  -539.758478082     A.U. after   15 cycles

 Excitation energies and oscillator strengths:

 Excited State   1:      Singlet-A'     2.7707 eV  447.49 nm  f=0.0247  <S**2>=0.000
      47 -> 48         0.70381
 This state for optimization and/or second-order correction.
 Total Energy, E(TD-HF/TD-DFT) =  -539.656657260
 Copying the excited state density for this state as the 1-particle RhoCI density.

 The electronic state is 1-A'.
 Alpha  occ. eigenvalues --  -10.77642 -10.73525 -10.72948 -10.72658 -10.72191
 Alpha  occ. eigenvalues --  -10.71635 -10.71530 -10.71087 -10.70980 -10.70501
 Alpha  occ. eigenvalues --  -10.70103 -10.69842 -10.69793 -10.69465  -1.16470
 Alpha  occ. eigenvalues --   -1.12468  -1.06943  -1.05766  -1.01306  -1.00252
 Alpha  occ. eigenvalues --   -0.95720  -0.91049  -0.86425  -0.85900  -0.83806
 Alpha  occ. eigenvalues --   -0.78382  -0.76061  -0.74403  -0.69629  -0.69268
 Alpha  occ. eigenvalues --   -0.68446  -0.68155  -0.68099  -0.64916  -0.64260
 Alpha  occ. eigenvalues --   -0.62956  -0.61791  -0.60187  -0.59503  -0.59114
 Alpha  occ. eigenvalues --   -0.56911  -0.55240  -0.54747  -0.52438  -0.46836
 Alpha  occ. eigenvalues --   -0.46088  -0.44270
 Alpha virt. eigenvalues --   -0.26092  -0.14668  -0.14092  -0.12770  -0.11182
 Alpha virt. eigenvalues --   -0.10088  -0.09238  -0.07976  -0.07958  -0.07478
 Alpha virt. eigenvalues --   -0.07205  -0.07143  -0.05644  -0.05579  -0.05338

 Mulliken charges:
               1
     1  C    0.081469
     2  C   -0.403856
     3  C   -0.436711
     4  C    0.023872
     5  C    0.004790
     6  C   -0.442514
     7  C   -0.410257
     8  C    0.104947
     9  C   -0.335848
    10  C    0.091006
    11  C   -0.647601
    12  C    0.701471
    13  C   -0.622840
    14  C    0.672554
    15  H    0.238625
    16  H    0.258560
    17  H    0.250687
    18  H    0.223900
    19  H    0.190151
    20  H    0.220192
    21  H    0.247102
    22  H    0.254042
    23  H    0.236055
    24  H    0.250103
    25  H    0.250103
 Sum of Mulliken charges =   1.00000

 Dipole moment (field-independent basis, Debye):
    X=             -0.1013    Y=             -0.5801    Z=             -0.0000  Tot=              0.5889
 Quadrupole moment (field-independent basis, Debye-Ang):
   XX=            -50.9358   YY=            -36.4180   ZZ=            -84.1389
   XY=             10.2914   XZ=              0.0000   YZ=             -0.0000

 Normal termination of Gaussian 16 at Tue Aug  2 12:32:38 2022.
