 Gaussian 16, Revision C.01,
 Gaussian 16:  ES64L-G16RevC.01  3-Jul-2019

 ---------------------------------------------------------------
 #n M062X/6-311++G(d,p) TD(NStates=1) EmpiricalDispersion=GD3 SP
 ---------------------------------------------------------------

 ------
 SP_-25
 ------
 Symbolic Z-matrix:
 Charge =  1 Multiplicity = 1

                         Standard orientation:
 ---------------------------------------------------------------------
 Center     Atomic      Atomic             Coordinates (Angstroms)
 Number     Number       Type             X           Y           Z
 ---------------------------------------------------------------------
      1          6           0       -2.362828   -1.544912    0.000000
      2          6           0       -2.312114   -2.938572    0.000000
      3          6           0       -1.082231   -3.589187    0.000000
      4          6           0        0.088317   -2.858232    0.000000
      5          6           0        2.378593    1.502990    0.000000
      6          6           0        2.345004    2.930583    0.000000
      7          6           0        1.142913    3.605015    0.000000
      8          6           0       -0.026419    2.851478    0.000000
      9          6           0       -1.271920    0.687227    0.000000
     10          6           0        1.247418   -0.697491    0.000000
     11          6           0       -1.200499   -0.796831    0.000000
     12          6           0        0.060427   -1.448690    0.000000
     13          6           0        0.000000    1.422999    0.000000
     14          6           0        1.219228    0.739793    0.000000
     15          1           0       -3.322597   -1.042886    0.000000
     16          1           0       -3.229190   -3.509819    0.000000
     17          1           0       -1.042200   -4.669451    0.000000
     18          1           0        1.046665   -3.361185    0.000000
     19          1           0        2.203481   -1.202521    0.000000
     20          1           0        3.342271    1.008742    0.000000
     21          1           0        3.281961    3.470786    0.000000
     22          1           0        1.105673    4.683620    0.000000
     23          1           0       -0.991311    3.344656    0.000000
     24          1           0       -1.875039    1.040519    0.857660
     25          1           0       -1.875039    1.040519   -0.857660
 ---------------------------------------------------------------------

 SCF Done:  E(RM062X) =  -539.757342248     A.U. after   15 cycles

 Excitation energies and oscillator strengths:

 Excited State   1:      Singlet-A'     2.7464 eV  451.45 nm  f=0.0238  <S**2>=0.000
      47 -> 48         0.70367
 This state for optimization and/or second-order correction.
 Total Energy, E(TD-HF/TD-DFT) =  -539.656414464
 Copying the excited state density for this state as the 1-particle RhoCI density.

 The electronic state is 1-A'.
 Alpha  occ. eigenvalues --  -10.77614 -10.73547 -10.72831 -10.72694 -10.72111
 Alpha  occ. eigenvalues --  -10.71695 -10.71671 -10.71009 -10.70957 -10.70386
 Alpha  occ. eigenvalues --  -10.70133 -10.69822 -10.69810 -10.69411  -1.16531
 Alpha  occ. eigenvalues --   -1.12500  -1.06941  -1.05858  -1.01303  -1.00340
 Alpha  occ. eigenvalues --   -0.95681  -0.91064  -0.86434  -0.85915  -0.83814
 Alpha  occ. eigenvalues --   -0.78379  -0.76119  -0.74401  -0.69647  -0.69289
 Alpha  occ. eigenvalues --   -0.68430  -0.68152  -0.68085  -0.65016  -0.64270
 Alpha  occ. eigenvalues --   -0.62958  -0.61761  -0.60228  -0.59435  -0.59116
 Alpha  occ. eigenvalues --   -0.56940  -0.55244  -0.54727  -0.52433  -0.46967
 Alpha  occ. eigenvalues --   -0.46094  -0.44139
 Alpha virt. eigenvalues --   -0.26077  -0.14673  -0.14088  -0.12764  -0.11186
 Alpha virt. eigenvalues --   -0.10095  -0.09242  -0.07973  -0.07942  -0.07481
 Alpha virt. eigenvalues --   -0.07213  -0.07145  -0.05642  -0.05581  -0.05345

 Mulliken charges:
               1
     1  C    0.078340
     2  C   -0.403009
     3  C   -0.436280
     4  C    0.038210
     5  C    0.012571
     6  C   -0.442616
     7  C   -0.411442
     8  C    0.109424
     9  C   -0.318510
    10  C    0.099682
    11  C   -0.652142
    12  C    0.685333
    13  C   -0.625420
    14  C    0.645183
    15  H    0.238585
    16  H    0.259249
    17  H    0.251242
    18  H    0.224425
    19  H    0.189794
    20  H    0.219647
    21  H    0.246757
    22  H    0.253631
    23  H    0.235371
    24  H    0.250987
    25  H    0.250987
 Sum of Mulliken charges =   1.00000

 Dipole moment (field-independent basis, Debye):
    X=             -0.1738    Y=             -0.6986    Z=             -0.0000  Tot=              0.7199
 Quadrupole moment (field-independent basis, Debye-Ang):
   XX=            -51.0078   YY=            -36.3614   ZZ=            -84.1357
   XY=             10.2276   XZ=              0.0000   YZ=             -0.0000

 Normal termination of Gaussian 16 at Tue Aug  2 11:45:45 2022.
