 Gaussian 16, Revision C.01,
 Gaussian 16:  ES64L-G16RevC.01  3-Jul-2019

 ---------------------------------------------------------------
 #n M062X/6-311++G(d,p) TD(NStates=1) EmpiricalDispersion=GD3 SP
 ---------------------------------------------------------------

 -------
 SP_-150
 -------
 Symbolic Z-matrix:
 Charge =  1 Multiplicity = 1

                         Standard orientation:
 ---------------------------------------------------------------------
 Center     Atomic      Atomic             Coordinates (Angstroms)
 Number     Number       Type             X           Y           Z
 ---------------------------------------------------------------------
      1          6           0        0.027675    2.861077    0.000000
      2          6           0       -1.135093    3.621596    0.000000
      3          6           0       -2.331537    2.943831    0.000000
      4          6           0       -2.363233    1.501724    0.000000
      5          6           0       -0.096253   -2.871914    0.000000
      6          6           0        1.062784   -3.594264    0.000000
      7          6           0        2.294301   -2.937106    0.000000
      8          6           0        2.354825   -1.543446    0.000000
      9          6           0        1.273619    0.691148    0.000000
     10          6           0       -1.240677   -0.710766    0.000000
     11          6           0        0.000000    1.417762    0.000000
     12          6           0       -1.212540    0.736322    0.000000
     13          6           0        1.205004   -0.800012    0.000000
     14          6           0       -0.061279   -1.455462    0.000000
     15          1           0        0.997127    3.345688    0.000000
     16          1           0       -1.096330    4.699771    0.000000
     17          1           0       -3.273052    3.476697    0.000000
     18          1           0       -3.331085    1.015141    0.000000
     19          1           0       -2.198642   -1.212024    0.000000
     20          1           0       -1.058746   -3.366510    0.000000
     21          1           0        1.030835   -4.674786    0.000000
     22          1           0        3.210492   -3.510410    0.000000
     23          1           0        3.319187   -1.050476    0.000000
     24          1           0        1.867320    1.056988    0.858485
     25          1           0        1.867320    1.056988   -0.858485
 ---------------------------------------------------------------------

 SCF Done:  E(RM062X) =  -539.753165108     A.U. after   15 cycles

 Excitation energies and oscillator strengths:

 Excited State   1:      Singlet-A'     2.6562 eV  466.77 nm  f=0.0197  <S**2>=0.000
      47 -> 48         0.70346
 This state for optimization and/or second-order correction.
 Total Energy, E(TD-HF/TD-DFT) =  -539.655550193
 Copying the excited state density for this state as the 1-particle RhoCI density.

 The electronic state is 1-A'.
 Alpha  occ. eigenvalues --  -10.77564 -10.73772 -10.72845 -10.72629 -10.72076
 Alpha  occ. eigenvalues --  -10.71919 -10.71881 -10.70971 -10.70791 -10.70231
 Alpha  occ. eigenvalues --  -10.70027 -10.69946 -10.69714 -10.69294  -1.16579
 Alpha  occ. eigenvalues --   -1.12493  -1.06936  -1.05911  -1.01285  -1.00465
 Alpha  occ. eigenvalues --   -0.95549  -0.91038  -0.86447  -0.85902  -0.83783
 Alpha  occ. eigenvalues --   -0.78333  -0.76174  -0.74368  -0.69790  -0.69331
 Alpha  occ. eigenvalues --   -0.68307  -0.68082  -0.68068  -0.65304  -0.64244
 Alpha  occ. eigenvalues --   -0.62757  -0.61583  -0.60463  -0.59231  -0.59163
 Alpha  occ. eigenvalues --   -0.56958  -0.55267  -0.54542  -0.52436  -0.47356
 Alpha  occ. eigenvalues --   -0.46122  -0.43747
 Alpha virt. eigenvalues --   -0.26095  -0.14669  -0.14075  -0.12757  -0.11193
 Alpha virt. eigenvalues --   -0.10098  -0.09261  -0.07959  -0.07917  -0.07486
 Alpha virt. eigenvalues --   -0.07217  -0.07137  -0.05645  -0.05575  -0.05357

 Mulliken charges:
               1
     1  C    0.119064
     2  C   -0.414387
     3  C   -0.443902
     4  C   -0.000314
     5  C    0.038480
     6  C   -0.432916
     7  C   -0.401103
     8  C    0.071265
     9  C   -0.331390
    10  C    0.090046
    11  C   -0.608666
    12  C    0.646130
    13  C   -0.657478
    14  C    0.704809
    15  H    0.234749
    16  H    0.251888
    17  H    0.245383
    18  H    0.218409
    19  H    0.189290
    20  H    0.225845
    21  H    0.252531
    22  H    0.260851
    23  H    0.239809
    24  H    0.250803
    25  H    0.250803
 Sum of Mulliken charges =   1.00000

 Dipole moment (field-independent basis, Debye):
    X=              0.3734    Y=             -1.0629    Z=             -0.0000  Tot=              1.1266
 Quadrupole moment (field-independent basis, Debye-Ang):
   XX=            -51.2213   YY=            -36.0745   ZZ=            -84.1294
   XY=            -10.1192   XZ=             -0.0000   YZ=             -0.0000

 Normal termination of Gaussian 16 at Tue Aug  2 10:42:05 2022.
