 Gaussian 16, Revision C.01,
 Gaussian 16:  ES64L-G16RevC.01  3-Jul-2019

 ---------------------------------------------------------------
 #n M062X/6-311++G(d,p) TD(NStates=1) EmpiricalDispersion=GD3 SP
 ---------------------------------------------------------------

 ------
 SP_-50
 ------
 Symbolic Z-matrix:
 Charge =  1 Multiplicity = 1

                         Standard orientation:
 ---------------------------------------------------------------------
 Center     Atomic      Atomic             Coordinates (Angstroms)
 Number     Number       Type             X           Y           Z
 ---------------------------------------------------------------------
      1          6           0        0.024511    2.860677    0.000000
      2          6           0       -1.139092    3.617465    0.000000
      3          6           0       -2.338261    2.939629    0.000000
      4          6           0       -2.368746    1.502227    0.000000
      5          6           0       -0.093957   -2.867713    0.000000
      6          6           0        1.067940   -3.594609    0.000000
      7          6           0        2.300406   -2.939684    0.000000
      8          6           0        2.358153   -1.547935    0.000000
      9          6           0        1.280873    0.693878    0.000000
     10          6           0       -1.243292   -0.706478    0.000000
     11          6           0        0.000000    1.419822    0.000000
     12          6           0       -1.213837    0.737100    0.000000
     13          6           0        1.203706   -0.799204    0.000000
     14          6           0       -0.060883   -1.452211    0.000000
     15          1           0        0.992095    3.348596    0.000000
     16          1           0       -1.101694    4.695762    0.000000
     17          1           0       -3.278394    3.474206    0.000000
     18          1           0       -3.334764    1.012460    0.000000
     19          1           0       -2.200465   -1.208868    0.000000
     20          1           0       -1.055375   -3.364310    0.000000
     21          1           0        1.032538   -4.674742    0.000000
     22          1           0        3.216353   -3.513061    0.000000
     23          1           0        3.321198   -1.052554    0.000000
     24          1           0        1.871687    1.052368    0.860410
     25          1           0        1.871687    1.052368   -0.860410
 ---------------------------------------------------------------------

 SCF Done:  E(RM062X) =  -539.754935417     A.U. after   15 cycles

 Excitation energies and oscillator strengths:

 Excited State   1:      Singlet-A'     2.6861 eV  461.57 nm  f=0.0204  <S**2>=0.000
      47 -> 48         0.70355
 This state for optimization and/or second-order correction.
 Total Energy, E(TD-HF/TD-DFT) =  -539.656221765
 Copying the excited state density for this state as the 1-particle RhoCI density.

 The electronic state is 1-A'.
 Alpha  occ. eigenvalues --  -10.77601 -10.73754 -10.72815 -10.72746 -10.72002
 Alpha  occ. eigenvalues --  -10.71932 -10.71824 -10.70993 -10.70871 -10.70202
 Alpha  occ. eigenvalues --  -10.70136 -10.69917 -10.69746 -10.69348  -1.16509
 Alpha  occ. eigenvalues --   -1.12460  -1.06939  -1.05807  -1.01290  -1.00359
 Alpha  occ. eigenvalues --   -0.95603  -0.91027  -0.86436  -0.85888  -0.83778
 Alpha  occ. eigenvalues --   -0.78342  -0.76107  -0.74373  -0.69755  -0.69306
 Alpha  occ. eigenvalues --   -0.68334  -0.68098  -0.68078  -0.65183  -0.64232
 Alpha  occ. eigenvalues --   -0.62775  -0.61627  -0.60413  -0.59305  -0.59155
 Alpha  occ. eigenvalues --   -0.56928  -0.55262  -0.54583  -0.52442  -0.47192
 Alpha  occ. eigenvalues --   -0.46119  -0.43904
 Alpha virt. eigenvalues --   -0.26108  -0.14665  -0.14081  -0.12764  -0.11188
 Alpha virt. eigenvalues --   -0.10090  -0.09254  -0.07964  -0.07937  -0.07482
 Alpha virt. eigenvalues --   -0.07208  -0.07136  -0.05647  -0.05574  -0.05348

 Mulliken charges:
               1
     1  C    0.113203
     2  C   -0.412537
     3  C   -0.444103
     4  C   -0.006832
     5  C    0.024699
     6  C   -0.433347
     7  C   -0.401581
     8  C    0.073478
     9  C   -0.347691
    10  C    0.081567
    11  C   -0.604247
    12  C    0.671946
    13  C   -0.652473
    14  C    0.718701
    15  H    0.235372
    16  H    0.252297
    17  H    0.245733
    18  H    0.218976
    19  H    0.189752
    20  H    0.225306
    21  H    0.251978
    22  H    0.260184
    23  H    0.239816
    24  H    0.249901
    25  H    0.249901
 Sum of Mulliken charges =   1.00000

 Dipole moment (field-independent basis, Debye):
    X=              0.3007    Y=             -0.9461    Z=             -0.0000  Tot=              0.9927
 Quadrupole moment (field-independent basis, Debye-Ang):
   XX=            -51.1508   YY=            -36.1391   ZZ=            -84.1338
   XY=            -10.1783   XZ=             -0.0000   YZ=             -0.0000

 Normal termination of Gaussian 16 at Tue Aug  2 11:43:34 2022.
