 Gaussian 16, Revision C.01,
 Gaussian 16:  ES64L-G16RevC.01  3-Jul-2019

 ---------------------------------------------------------------
 #n M062X/6-311++G(d,p) TD(NStates=1) EmpiricalDispersion=GD3 SP
 ---------------------------------------------------------------

 ------
 SP_100
 ------
 Symbolic Z-matrix:
 Charge =  1 Multiplicity = 1

                         Standard orientation:
 ---------------------------------------------------------------------
 Center     Atomic      Atomic             Coordinates (Angstroms)
 Number     Number       Type             X           Y           Z
 ---------------------------------------------------------------------
      1          6           0       -2.357991   -1.546935    0.000000
      2          6           0       -2.300369   -2.939163    0.000000
      3          6           0       -1.068278   -3.594103    0.000000
      4          6           0        0.093863   -2.867626    0.000000
      5          6           0        2.368648    1.502203    0.000000
      6          6           0        2.337706    2.939572    0.000000
      7          6           0        1.138749    3.617113    0.000000
      8          6           0       -0.025193    2.859974    0.000000
      9          6           0       -1.278899    0.692903    0.000000
     10          6           0        1.243196   -0.706446    0.000000
     11          6           0       -1.203657   -0.799141    0.000000
     12          6           0        0.060907   -1.452462    0.000000
     13          6           0        0.000000    1.419741    0.000000
     14          6           0        1.214069    0.737192    0.000000
     15          1           0       -3.320983   -1.051400    0.000000
     16          1           0       -3.216452   -3.512349    0.000000
     17          1           0       -1.033068   -4.674310    0.000000
     18          1           0        1.055204   -3.364421    0.000000
     19          1           0        2.200408   -1.208870    0.000000
     20          1           0        3.334777    1.012592    0.000000
     21          1           0        3.277805    3.474330    0.000000
     22          1           0        1.101139    4.695415    0.000000
     23          1           0       -0.992865    3.347783    0.000000
     24          1           0       -1.871235    1.052150    0.859860
     25          1           0       -1.871235    1.052150   -0.859860
 ---------------------------------------------------------------------

 SCF Done:  E(RM062X) =  -539.754908642     A.U. after   15 cycles

 Excitation energies and oscillator strengths:

 Excited State   1:      Singlet-A'     2.6867 eV  461.48 nm  f=0.0205  <S**2>=0.000
      47 -> 48         0.70354
 This state for optimization and/or second-order correction.
 Total Energy, E(TD-HF/TD-DFT) =  -539.656174802
 Copying the excited state density for this state as the 1-particle RhoCI density.

 The electronic state is 1-A'.
 Alpha  occ. eigenvalues --  -10.77597 -10.73740 -10.72810 -10.72733 -10.71997
 Alpha  occ. eigenvalues --  -10.71934 -10.71823 -10.70986 -10.70869 -10.70201
 Alpha  occ. eigenvalues --  -10.70139 -10.69914 -10.69746 -10.69344  -1.16521
 Alpha  occ. eigenvalues --   -1.12469  -1.06939  -1.05827  -1.01290  -1.00374
 Alpha  occ. eigenvalues --   -0.95602  -0.91032  -0.86438  -0.85892  -0.83782
 Alpha  occ. eigenvalues --   -0.78344  -0.76118  -0.74374  -0.69751  -0.69308
 Alpha  occ. eigenvalues --   -0.68339  -0.68094  -0.68083  -0.65188  -0.64237
 Alpha  occ. eigenvalues --   -0.62786  -0.61634  -0.60405  -0.59303  -0.59153
 Alpha  occ. eigenvalues --   -0.56934  -0.55262  -0.54589  -0.52440  -0.47198
 Alpha  occ. eigenvalues --   -0.46117  -0.43899
 Alpha virt. eigenvalues --   -0.26103  -0.14667  -0.14081  -0.12763  -0.11188
 Alpha virt. eigenvalues --   -0.10092  -0.09254  -0.07964  -0.07935  -0.07483
 Alpha virt. eigenvalues --   -0.07210  -0.07137  -0.05646  -0.05575  -0.05349

 Mulliken charges:
               1
     1  C    0.073731
     2  C   -0.401709
     3  C   -0.433528
     4  C    0.028018
     5  C   -0.004314
     6  C   -0.443962
     7  C   -0.412860
     8  C    0.114052
     9  C   -0.342552
    10  C    0.084674
    11  C   -0.653635
    12  C    0.713986
    13  C   -0.607238
    14  C    0.665818
    15  H    0.239716
    16  H    0.260217
    17  H    0.252010
    18  H    0.225319
    19  H    0.189685
    20  H    0.218932
    21  H    0.245758
    22  H    0.252338
    23  H    0.235273
    24  H    0.250136
    25  H    0.250136
 Sum of Mulliken charges =   1.00000

 Dipole moment (field-independent basis, Debye):
    X=             -0.3022    Y=             -0.9451    Z=             -0.0000  Tot=              0.9922
 Quadrupole moment (field-independent basis, Debye-Ang):
   XX=            -51.1507   YY=            -36.1475   ZZ=            -84.1333
   XY=             10.1723   XZ=             -0.0000   YZ=             -0.0000

 Normal termination of Gaussian 16 at Tue Aug  2 13:00:07 2022.
