 Gaussian 16, Revision C.01,
 Gaussian 16:  ES64L-G16RevC.01  3-Jul-2019

 ---------------------------------------------------------------
 #n M062X/6-311++G(d,p) TD(NStates=1) EmpiricalDispersion=GD3 SP
 ---------------------------------------------------------------

 ------
 SP_-25
 ------
 Symbolic Z-matrix:
 Charge =  1 Multiplicity = 1

                         Standard orientation:
 ---------------------------------------------------------------------
 Center     Atomic      Atomic             Coordinates (Angstroms)
 Number     Number       Type             X           Y           Z
 ---------------------------------------------------------------------
      1          6           0        0.022994    2.854967    0.000000
      2          6           0       -1.144639    3.606750    0.000000
      3          6           0       -2.347785    2.930836    0.000000
      4          6           0       -2.379083    1.503078    0.000000
      5          6           0       -0.088762   -2.858685    0.000000
      6          6           0        1.080575   -3.591733    0.000000
      7          6           0        2.312332   -2.941182    0.000000
      8          6           0        2.363667   -1.549915    0.000000
      9          6           0        1.281646    0.692373    0.000000
     10          6           0       -1.247886   -0.697673    0.000000
     11          6           0        0.000000    1.423388    0.000000
     12          6           0       -1.218061    0.739313    0.000000
     13          6           0        1.200755   -0.797158    0.000000
     14          6           0       -0.060292   -1.447454    0.000000
     15          1           0        0.987445    3.348707    0.000000
     16          1           0       -1.108471    4.685326    0.000000
     17          1           0       -3.284918    3.470124    0.000000
     18          1           0       -3.342203    1.008047    0.000000
     19          1           0       -2.203750   -1.202544    0.000000
     20          1           0       -1.047490   -3.360655    0.000000
     21          1           0        1.039593   -4.671626    0.000000
     22          1           0        3.228734   -3.513380    0.000000
     23          1           0        3.323699   -1.048652    0.000000
     24          1           0        1.877296    1.041609    0.860410
     25          1           0        1.877296    1.041609   -0.860410
 ---------------------------------------------------------------------

 SCF Done:  E(RM062X) =  -539.757538354     A.U. after   15 cycles

 Excitation energies and oscillator strengths:

 Excited State   1:      Singlet-A'     2.7450 eV  451.68 nm  f=0.0231  <S**2>=0.000
      47 -> 48         0.70370
 This state for optimization and/or second-order correction.
 Total Energy, E(TD-HF/TD-DFT) =  -539.656662603
 Copying the excited state density for this state as the 1-particle RhoCI density.

 The electronic state is 1-A'.
 Alpha  occ. eigenvalues --  -10.77636 -10.73616 -10.72894 -10.72716 -10.72134
 Alpha  occ. eigenvalues --  -10.71701 -10.71660 -10.71017 -10.70991 -10.70376
 Alpha  occ. eigenvalues --  -10.70137 -10.69838 -10.69810 -10.69430  -1.16467
 Alpha  occ. eigenvalues --   -1.12457  -1.06942  -1.05754  -1.01301  -1.00266
 Alpha  occ. eigenvalues --   -0.95688  -0.91038  -0.86426  -0.85891  -0.83794
 Alpha  occ. eigenvalues --   -0.78368  -0.76061  -0.74393  -0.69671  -0.69276
 Alpha  occ. eigenvalues --   -0.68409  -0.68127  -0.68103  -0.64993  -0.64245
 Alpha  occ. eigenvalues --   -0.62882  -0.61743  -0.60269  -0.59438  -0.59129
 Alpha  occ. eigenvalues --   -0.56909  -0.55250  -0.54691  -0.52441  -0.46934
 Alpha  occ. eigenvalues --   -0.46100  -0.44165
 Alpha virt. eigenvalues --   -0.26102  -0.14666  -0.14090  -0.12770  -0.11183
 Alpha virt. eigenvalues --   -0.10087  -0.09242  -0.07973  -0.07955  -0.07479
 Alpha virt. eigenvalues --   -0.07204  -0.07140  -0.05645  -0.05577  -0.05340

 Mulliken charges:
               1
     1  C    0.107049
     2  C   -0.410753
     3  C   -0.443170
     4  C   -0.001858
     5  C    0.021020
     6  C   -0.435531
     7  C   -0.402955
     8  C    0.078475
     9  C   -0.344747
    10  C    0.085137
    11  C   -0.614665
    12  C    0.678360
    13  C   -0.648029
    14  C    0.712566
    15  H    0.235921
    16  H    0.253417
    17  H    0.246616
    18  H    0.219808
    19  H    0.190110
    20  H    0.224365
    21  H    0.251088
    22  H    0.259068
    23  H    0.239121
    24  H    0.249793
    25  H    0.249793
 Sum of Mulliken charges =   1.00000

 Dipole moment (field-independent basis, Debye):
    X=              0.1661    Y=             -0.7035    Z=              0.0000  Tot=              0.7228
 Quadrupole moment (field-independent basis, Debye-Ang):
   XX=            -51.0080   YY=            -36.3194   ZZ=            -84.1380
   XY=            -10.2581   XZ=              0.0000   YZ=              0.0000

 Normal termination of Gaussian 16 at Tue Aug  2 11:56:46 2022.
