 Gaussian 16, Revision C.01,
 Gaussian 16:  ES64L-G16RevC.01  3-Jul-2019

 ---------------------------------------------------------------
 #n M062X/6-311++G(d,p) TD(NStates=1) EmpiricalDispersion=GD3 SP
 ---------------------------------------------------------------

 ----
 SP_0
 ----
 Symbolic Z-matrix:
 Charge =  1 Multiplicity = 1

                         Standard orientation:
 ---------------------------------------------------------------------
 Center     Atomic      Atomic             Coordinates (Angstroms)
 Number     Number       Type             X           Y           Z
 ---------------------------------------------------------------------
      1          6           0        2.494717   -1.349936    0.000000
      2          6           0        3.700118   -0.654291    0.000000
      3          6           0        3.679513    0.732627    0.000000
      4          6           0        2.460992    1.420438    0.000000
      5          6           0       -2.465204    1.394547    0.000000
      6          6           0       -3.687813    0.694511    0.000000
      7          6           0       -3.702338   -0.689884    0.000000
      8          6           0       -2.489597   -1.371228    0.000000
      9          6           0        0.004207   -1.452264    0.000000
     10          6           0        0.000000    1.429153    0.000000
     11          6           0        1.265950   -0.673487    0.000000
     12          6           0        1.236983    0.736545    0.000000
     13          6           0       -1.258077   -0.680596    0.000000
     14          6           0       -1.238133    0.725223    0.000000
     15          1           0        2.497126   -2.433127    0.000000
     16          1           0        4.637594   -1.190360    0.000000
     17          1           0        4.604450    1.291883    0.000000
     18          1           0        2.458722    2.502909    0.000000
     19          1           0       -0.005158    2.510242    0.000000
     20          1           0       -2.476463    2.477105    0.000000
     21          1           0       -4.613839    1.252174    0.000000
     22          1           0       -4.635237   -1.233405    0.000000
     23          1           0       -2.477871   -2.454454    0.000000
     24          1           0        0.001386   -2.145551    0.859310
     25          1           0        0.001386   -2.145551   -0.859310
 ---------------------------------------------------------------------

 SCF Done:  E(RM062X) =  -539.760110505     A.U. after   15 cycles

 Excitation energies and oscillator strengths:

 Excited State   1:      Singlet-A'     2.8191 eV  439.80 nm  f=0.0284  <S**2>=0.000
      47 -> 48         0.70422
 This state for optimization and/or second-order correction.
 Total Energy, E(TD-HF/TD-DFT) =  -539.656509996
 Copying the excited state density for this state as the 1-particle RhoCI density.

 The electronic state is 1-A'.
 Alpha  occ. eigenvalues --  -10.77662 -10.73306 -10.73161 -10.72491 -10.72374
 Alpha  occ. eigenvalues --  -10.71436 -10.71299 -10.71135 -10.70976 -10.70878
 Alpha  occ. eigenvalues --  -10.70005 -10.69939 -10.69669 -10.69587  -1.16451
 Alpha  occ. eigenvalues --   -1.12470  -1.06945  -1.05743  -1.01313  -1.00197
 Alpha  occ. eigenvalues --   -0.95777  -0.91058  -0.86419  -0.85904  -0.83818
 Alpha  occ. eigenvalues --   -0.78400  -0.76036  -0.74418  -0.69562  -0.69249
 Alpha  occ. eigenvalues --   -0.68503  -0.68193  -0.68100  -0.64753  -0.64285
 Alpha  occ. eigenvalues --   -0.63067  -0.61863  -0.60013  -0.59665  -0.59092
 Alpha  occ. eigenvalues --   -0.56901  -0.55215  -0.54838  -0.52437  -0.46643
 Alpha  occ. eigenvalues --   -0.46059  -0.44482
 Alpha virt. eigenvalues --   -0.26086  -0.14670  -0.14097  -0.12773  -0.11180
 Alpha virt. eigenvalues --   -0.10087  -0.09230  -0.07983  -0.07968  -0.07476
 Alpha virt. eigenvalues --   -0.07204  -0.07146  -0.05643  -0.05582  -0.05333

 Mulliken charges:
               1
     1  C    0.090413
     2  C   -0.406024
     3  C   -0.439386
     4  C    0.018746
     5  C    0.013818
     6  C   -0.440806
     7  C   -0.407647
     8  C    0.096314
     9  C   -0.331421
    10  C    0.094616
    11  C   -0.640097
    12  C    0.686720
    13  C   -0.634132
    14  C    0.679243
    15  H    0.237555
    16  H    0.256890
    17  H    0.249352
    18  H    0.222476
    19  H    0.190356
    20  H    0.221540
    21  H    0.248455
    22  H    0.255758
    23  H    0.236911
    24  H    0.250175
    25  H    0.250175
 Sum of Mulliken charges =   1.00000

 Dipole moment (field-independent basis, Debye):
    X=              0.1393    Y=              0.1870    Z=              0.0000  Tot=              0.2332
 Quadrupole moment (field-independent basis, Debye-Ang):
   XX=            -31.1209   YY=            -56.2604   ZZ=            -84.1415
   XY=              0.1767   XZ=              0.0000   YZ=              0.0000

 Normal termination of Gaussian 16 at Tue Aug  2 12:05:44 2022.
