 Gaussian 16, Revision C.01,
 Gaussian 16:  ES64L-G16RevC.01  3-Jul-2019

 ---------------------------------------------------------------
 #n M062X/6-311++G(d,p) TD(NStates=1) EmpiricalDispersion=GD3 SP
 ---------------------------------------------------------------

 -----
 SP_75
 -----
 Symbolic Z-matrix:
 Charge =  1 Multiplicity = 1

                         Standard orientation:
 ---------------------------------------------------------------------
 Center     Atomic      Atomic             Coordinates (Angstroms)
 Number     Number       Type             X           Y           Z
 ---------------------------------------------------------------------
      1          6           0        2.497571   -1.349020    0.000000
      2          6           0        3.701547   -0.653753    0.000000
      3          6           0        3.680409    0.734138    0.000000
      4          6           0        2.461142    1.420743    0.000000
      5          6           0       -2.465354    1.394839    0.000000
      6          6           0       -3.688717    0.695997    0.000000
      7          6           0       -3.703759   -0.689375    0.000000
      8          6           0       -2.492443   -1.370348    0.000000
      9          6           0        0.004169   -1.458866    0.000000
     10          6           0        0.000000    1.429451    0.000000
     11          6           0        1.266182   -0.673560    0.000000
     12          6           0        1.236388    0.736094    0.000000
     13          6           0       -1.258296   -0.680677    0.000000
     14          6           0       -1.237528    0.724771    0.000000
     15          1           0        2.500432   -2.432133    0.000000
     16          1           0        4.639322   -1.189218    0.000000
     17          1           0        4.604893    1.293769    0.000000
     18          1           0        2.458269    2.503136    0.000000
     19          1           0       -0.005160    2.510391    0.000000
     20          1           0       -2.476015    2.477324    0.000000
     21          1           0       -4.614295    1.254034    0.000000
     22          1           0       -4.636960   -1.232300    0.000000
     23          1           0       -2.481164   -2.453501    0.000000
     24          1           0        0.001402   -2.147052    0.860960
     25          1           0        0.001402   -2.147052   -0.860960
 ---------------------------------------------------------------------

 SCF Done:  E(RM062X) =  -539.760164245     A.U. after   15 cycles

 Excitation energies and oscillator strengths:

 Excited State   1:      Singlet-A'     2.8196 eV  439.72 nm  f=0.0281  <S**2>=0.000
      47 -> 48         0.70422
 This state for optimization and/or second-order correction.
 Total Energy, E(TD-HF/TD-DFT) =  -539.656545184
 Copying the excited state density for this state as the 1-particle RhoCI density.

 The electronic state is 1-A'.
 Alpha  occ. eigenvalues --  -10.77675 -10.73346 -10.73200 -10.72504 -10.72387
 Alpha  occ. eigenvalues --  -10.71440 -10.71303 -10.71129 -10.70997 -10.70871
 Alpha  occ. eigenvalues --  -10.70006 -10.69940 -10.69679 -10.69597  -1.16412
 Alpha  occ. eigenvalues --   -1.12445  -1.06945  -1.05681  -1.01312  -1.00152
 Alpha  occ. eigenvalues --   -0.95782  -0.91043  -0.86414  -0.85890  -0.83806
 Alpha  occ. eigenvalues --   -0.78393  -0.76000  -0.74414  -0.69580  -0.69239
 Alpha  occ. eigenvalues --   -0.68490  -0.68177  -0.68112  -0.64744  -0.64268
 Alpha  occ. eigenvalues --   -0.63010  -0.61859  -0.60055  -0.59650  -0.59101
 Alpha  occ. eigenvalues --   -0.56881  -0.55224  -0.54809  -0.52442  -0.46621
 Alpha  occ. eigenvalues --   -0.46059  -0.44503
 Alpha virt. eigenvalues --   -0.26101  -0.14666  -0.14099  -0.12776  -0.11177
 Alpha virt. eigenvalues --   -0.10082  -0.09231  -0.07982  -0.07976  -0.07475
 Alpha virt. eigenvalues --   -0.07199  -0.07143  -0.05645  -0.05579  -0.05330

 Mulliken charges:
               1
     1  C    0.089273
     2  C   -0.405465
     3  C   -0.439265
     4  C    0.009559
     5  C    0.004936
     6  C   -0.440835
     7  C   -0.407056
     8  C    0.094821
     9  C   -0.347023
    10  C    0.085588
    11  C   -0.634972
    12  C    0.703396
    13  C   -0.628305
    14  C    0.696630
    15  H    0.237863
    16  H    0.256775
    17  H    0.249263
    18  H    0.222504
    19  H    0.190538
    20  H    0.221593
    21  H    0.248367
    22  H    0.255639
    23  H    0.237222
    24  H    0.249477
    25  H    0.249477
 Sum of Mulliken charges =   1.00000

 Dipole moment (field-independent basis, Debye):
    X=              0.1393    Y=              0.1923    Z=             -0.0000  Tot=              0.2375
 Quadrupole moment (field-independent basis, Debye-Ang):
   XX=            -31.0868   YY=            -56.2700   ZZ=            -84.1428
   XY=              0.1768   XZ=             -0.0000   YZ=              0.0000

 Normal termination of Gaussian 16 at Tue Aug  2 12:51:16 2022.
