 Gaussian 16, Revision C.01,
 Gaussian 16:  ES64L-G16RevC.01  3-Jul-2019

 ---------------------------------------------------------------
 #n M062X/6-311++G(d,p) TD(NStates=1) EmpiricalDispersion=GD3 SP
 ---------------------------------------------------------------

 -----
 SP_50
 -----
 Symbolic Z-matrix:
 Charge =  1 Multiplicity = 1

                         Standard orientation:
 ---------------------------------------------------------------------
 Center     Atomic      Atomic             Coordinates (Angstroms)
 Number     Number       Type             X           Y           Z
 ---------------------------------------------------------------------
      1          6           0        0.020151    2.850658    0.000000
      2          6           0       -1.150811    3.596735    0.000000
      3          6           0       -2.358370    2.922146    0.000000
      4          6           0       -2.389612    1.503961    0.000000
      5          6           0       -0.083806   -2.849824    0.000000
      6          6           0        1.092503   -3.589851    0.000000
      7          6           0        2.324325   -2.943710    0.000000
      8          6           0        2.369516   -1.553901    0.000000
      9          6           0        1.286352    0.692867    0.000000
     10          6           0       -1.252709   -0.688942    0.000000
     11          6           0        0.000000    1.427117    0.000000
     12          6           0       -1.221823    0.741339    0.000000
     13          6           0        1.197893   -0.795262    0.000000
     14          6           0       -0.059682   -1.442200    0.000000
     15          1           0        0.981281    3.350423    0.000000
     16          1           0       -1.116290    4.675576    0.000000
     17          1           0       -3.292587    3.465800    0.000000
     18          1           0       -3.349600    1.003372    0.000000
     19          1           0       -2.207184   -1.196217    0.000000
     20          1           0       -1.039988   -3.356756    0.000000
     21          1           0        1.045549   -4.669378    0.000000
     22          1           0        3.240907   -3.515119    0.000000
     23          1           0        3.326629   -1.047079    0.000000
     24          1           0        1.883857    1.031294    0.861510
     25          1           0        1.883857    1.031294   -0.861510
 ---------------------------------------------------------------------

 SCF Done:  E(RM062X) =  -539.759282440     A.U. after   15 cycles

 Excitation energies and oscillator strengths:

 Excited State   1:      Singlet-A'     2.7919 eV  444.08 nm  f=0.0258  <S**2>=0.000
      47 -> 48         0.70396
 This state for optimization and/or second-order correction.
 Total Energy, E(TD-HF/TD-DFT) =  -539.656680837
 Copying the excited state density for this state as the 1-particle RhoCI density.

 The electronic state is 1-A'.
 Alpha  occ. eigenvalues --  -10.77668 -10.73502 -10.73067 -10.72620 -10.72270
 Alpha  occ. eigenvalues --  -10.71574 -10.71389 -10.71164 -10.71004 -10.70617
 Alpha  occ. eigenvalues --  -10.70073 -10.69875 -10.69764 -10.69519  -1.16414
 Alpha  occ. eigenvalues --   -1.12437  -1.06945  -1.05677  -1.01308  -1.00171
 Alpha  occ. eigenvalues --   -0.95752  -0.91034  -0.86416  -0.85884  -0.83796
 Alpha  occ. eigenvalues --   -0.78382  -0.76005  -0.74405  -0.69619  -0.69249
 Alpha  occ. eigenvalues --   -0.68455  -0.68153  -0.68114  -0.64830  -0.64250
 Alpha  occ. eigenvalues --   -0.62940  -0.61816  -0.60158  -0.59558  -0.59114
 Alpha  occ. eigenvalues --   -0.56882  -0.55238  -0.54755  -0.52444  -0.46722
 Alpha  occ. eigenvalues --   -0.46079  -0.44387
 Alpha virt. eigenvalues --   -0.26108  -0.14664  -0.14096  -0.12775  -0.11178
 Alpha virt. eigenvalues --   -0.10082  -0.09235  -0.07978  -0.07972  -0.07476
 Alpha virt. eigenvalues --   -0.07198  -0.07140  -0.05646  -0.05578  -0.05332

 Mulliken charges:
               1
     1  C    0.099461
     2  C   -0.408387
     3  C   -0.442155
     4  C   -0.002236
     5  C    0.010885
     6  C   -0.437323
     7  C   -0.403896
     8  C    0.082659
     9  C   -0.353014
    10  C    0.081274
    11  C   -0.618411
    12  C    0.696245
    13  C   -0.639508
    14  C    0.715983
    15  H    0.236700
    16  H    0.254468
    17  H    0.247450
    18  H    0.220734
    19  H    0.190476
    20  H    0.223435
    21  H    0.250133
    22  H    0.257871
    23  H    0.238633
    24  H    0.249262
    25  H    0.249262
 Sum of Mulliken charges =   1.00000

 Dipole moment (field-independent basis, Debye):
    X=              0.0289    Y=             -0.4608    Z=              0.0000  Tot=              0.4618
 Quadrupole moment (field-independent basis, Debye-Ang):
   XX=            -50.8637   YY=            -36.4726   ZZ=            -84.1417
   XY=            -10.3559   XZ=              0.0000   YZ=              0.0000

 Normal termination of Gaussian 16 at Tue Aug  2 12:40:19 2022.
