 Gaussian 16, Revision C.01,
 Gaussian 16:  ES64L-G16RevC.01  3-Jul-2019

 ---------------------------------------------------------------
 #n M062X/6-311++G(d,p) TD(NStates=1) EmpiricalDispersion=GD3 SP
 ---------------------------------------------------------------

 ------
 SP_100
 ------
 Symbolic Z-matrix:
 Charge =  1 Multiplicity = 1

                         Standard orientation:
 ---------------------------------------------------------------------
 Center     Atomic      Atomic             Coordinates (Angstroms)
 Number     Number       Type             X           Y           Z
 ---------------------------------------------------------------------
      1          6           0       -2.366514   -1.551408    0.000000
      2          6           0       -2.318319   -2.942187    0.000000
      3          6           0       -1.086721   -3.590544    0.000000
      4          6           0        0.086222   -2.854217    0.000000
      5          6           0        2.384299    1.503499    0.000000
      6          6           0        2.352809    2.926454    0.000000
      7          6           0        1.147565    3.601560    0.000000
      8          6           0       -0.021906    2.852458    0.000000
      9          6           0       -1.282972    0.692204    0.000000
     10          6           0        1.250241   -0.693298    0.000000
     11          6           0       -1.199305   -0.796178    0.000000
     12          6           0        0.059990   -1.444957    0.000000
     13          6           0        0.000000    1.425206    0.000000
     14          6           0        1.220056    0.740364    0.000000
     15          1           0       -3.325060   -1.047285    0.000000
     16          1           0       -3.234880   -3.513892    0.000000
     17          1           0       -1.042852   -4.670288    0.000000
     18          1           0        1.043639   -3.358771    0.000000
     19          1           0        2.205429   -1.199391    0.000000
     20          1           0        3.345909    1.005763    0.000000
     21          1           0        3.288466    3.468012    0.000000
     22          1           0        1.112117    4.680272    0.000000
     23          1           0       -0.984742    3.349158    0.000000
     24          1           0       -1.880346    1.036339    0.860685
     25          1           0       -1.880346    1.036339   -0.860685
 ---------------------------------------------------------------------

 SCF Done:  E(RM062X) =  -539.758519049     A.U. after   15 cycles

 Excitation energies and oscillator strengths:

 Excited State   1:      Singlet-A'     2.7703 eV  447.55 nm  f=0.0245  <S**2>=0.000
      47 -> 48         0.70382
 This state for optimization and/or second-order correction.
 Total Energy, E(TD-HF/TD-DFT) =  -539.656711870
 Copying the excited state density for this state as the 1-particle RhoCI density.

 The electronic state is 1-A'.
 Alpha  occ. eigenvalues --  -10.77651 -10.73553 -10.72974 -10.72666 -10.72200
 Alpha  occ. eigenvalues --  -10.71638 -10.71525 -10.71090 -10.70994 -10.70497
 Alpha  occ. eigenvalues --  -10.70105 -10.69842 -10.69799 -10.69472  -1.16445
 Alpha  occ. eigenvalues --   -1.12451  -1.06943  -1.05724  -1.01305  -1.00223
 Alpha  occ. eigenvalues --   -0.95723  -0.91039  -0.86422  -0.85890  -0.83798
 Alpha  occ. eigenvalues --   -0.78377  -0.76037  -0.74400  -0.69639  -0.69263
 Alpha  occ. eigenvalues --   -0.68437  -0.68144  -0.68107  -0.64907  -0.64250
 Alpha  occ. eigenvalues --   -0.62923  -0.61785  -0.60206  -0.59501  -0.59119
 Alpha  occ. eigenvalues --   -0.56898  -0.55243  -0.54731  -0.52441  -0.46822
 Alpha  occ. eigenvalues --   -0.46089  -0.44281
 Alpha virt. eigenvalues --   -0.26102  -0.14666  -0.14093  -0.12772  -0.11180
 Alpha virt. eigenvalues --   -0.10085  -0.09238  -0.07976  -0.07963  -0.07477
 Alpha virt. eigenvalues --   -0.07202  -0.07141  -0.05645  -0.05578  -0.05336

 Mulliken charges:
               1
     1  C    0.080908
     2  C   -0.403534
     3  C   -0.436482
     4  C    0.017473
     5  C   -0.000728
     6  C   -0.442673
     7  C   -0.409766
     8  C    0.103593
     9  C   -0.346217
    10  C    0.084925
    11  C   -0.644810
    12  C    0.711804
    13  C   -0.618035
    14  C    0.684637
    15  H    0.238827
    16  H    0.258488
    17  H    0.250626
    18  H    0.223895
    19  H    0.190277
    20  H    0.220254
    21  H    0.247046
    22  H    0.253961
    23  H    0.236261
    24  H    0.249636
    25  H    0.249636
 Sum of Mulliken charges =   1.00000

 Dipole moment (field-independent basis, Debye):
    X=             -0.0982    Y=             -0.5820    Z=              0.0000  Tot=              0.5902
 Quadrupole moment (field-independent basis, Debye-Ang):
   XX=            -50.9359   YY=            -36.4015   ZZ=            -84.1398
   XY=             10.3034   XZ=             -0.0000   YZ=              0.0000

 Normal termination of Gaussian 16 at Tue Aug  2 13:03:26 2022.
