 Gaussian 16, Revision C.01,
 Gaussian 16:  ES64L-G16RevC.01  3-Jul-2019

 ---------------------------------------------------------------
 #n M062X/6-311++G(d,p) TD(NStates=1) EmpiricalDispersion=GD3 SP
 ---------------------------------------------------------------

 ------
 SP_-25
 ------
 Symbolic Z-matrix:
 Charge =  1 Multiplicity = 1

                         Standard orientation:
 ---------------------------------------------------------------------
 Center     Atomic      Atomic             Coordinates (Angstroms)
 Number     Number       Type             X           Y           Z
 ---------------------------------------------------------------------
      1          6           0        2.489594   -1.371231    0.000000
      2          6           0        3.702336   -0.689888    0.000000
      3          6           0        3.687812    0.694507    0.000000
      4          6           0        2.465204    1.394544    0.000000
      5          6           0       -2.460992    1.420440    0.000000
      6          6           0       -3.679514    0.732631    0.000000
      7          6           0       -3.700120   -0.654287    0.000000
      8          6           0       -2.494720   -1.349934    0.000000
      9          6           0       -0.004185   -1.452264    0.000000
     10          6           0        0.000000    1.429153    0.000000
     11          6           0        1.258075   -0.680597    0.000000
     12          6           0        1.238132    0.725221    0.000000
     13          6           0       -1.265953   -0.673486    0.000000
     14          6           0       -1.236984    0.736546    0.000000
     15          1           0        2.477866   -2.454457    0.000000
     16          1           0        4.635234   -1.233410    0.000000
     17          1           0        4.613838    1.252169    0.000000
     18          1           0        2.476464    2.477102    0.000000
     19          1           0        0.005159    2.510242    0.000000
     20          1           0       -2.458720    2.502912    0.000000
     21          1           0       -4.604450    1.291888    0.000000
     22          1           0       -4.637597   -1.190355    0.000000
     23          1           0       -2.497130   -2.433124    0.000000
     24          1           0       -0.001389   -2.145551    0.859310
     25          1           0       -0.001389   -2.145551   -0.859310
 ---------------------------------------------------------------------

 SCF Done:  E(RM062X) =  -539.760110472     A.U. after   15 cycles

 Excitation energies and oscillator strengths:

 Excited State   1:      Singlet-A'     2.8191 eV  439.80 nm  f=0.0284  <S**2>=0.000
      47 -> 48         0.70422
 This state for optimization and/or second-order correction.
 Total Energy, E(TD-HF/TD-DFT) =  -539.656510002
 Copying the excited state density for this state as the 1-particle RhoCI density.

 The electronic state is 1-A'.
 Alpha  occ. eigenvalues --  -10.77662 -10.73306 -10.73161 -10.72491 -10.72374
 Alpha  occ. eigenvalues --  -10.71436 -10.71299 -10.71135 -10.70976 -10.70878
 Alpha  occ. eigenvalues --  -10.70005 -10.69939 -10.69669 -10.69587  -1.16451
 Alpha  occ. eigenvalues --   -1.12470  -1.06945  -1.05743  -1.01313  -1.00197
 Alpha  occ. eigenvalues --   -0.95777  -0.91058  -0.86419  -0.85904  -0.83818
 Alpha  occ. eigenvalues --   -0.78400  -0.76036  -0.74418  -0.69562  -0.69249
 Alpha  occ. eigenvalues --   -0.68503  -0.68193  -0.68100  -0.64753  -0.64285
 Alpha  occ. eigenvalues --   -0.63067  -0.61863  -0.60013  -0.59665  -0.59092
 Alpha  occ. eigenvalues --   -0.56901  -0.55215  -0.54838  -0.52437  -0.46643
 Alpha  occ. eigenvalues --   -0.46059  -0.44482
 Alpha virt. eigenvalues --   -0.26086  -0.14670  -0.14097  -0.12773  -0.11180
 Alpha virt. eigenvalues --   -0.10087  -0.09230  -0.07983  -0.07968  -0.07476
 Alpha virt. eigenvalues --   -0.07204  -0.07146  -0.05643  -0.05582  -0.05333

 Mulliken charges:
               1
     1  C    0.096303
     2  C   -0.407655
     3  C   -0.440806
     4  C    0.013812
     5  C    0.018752
     6  C   -0.439385
     7  C   -0.406016
     8  C    0.090424
     9  C   -0.331421
    10  C    0.094616
    11  C   -0.634146
    12  C    0.679250
    13  C   -0.640083
    14  C    0.686713
    15  H    0.236911
    16  H    0.255758
    17  H    0.248455
    18  H    0.221540
    19  H    0.190356
    20  H    0.222476
    21  H    0.249353
    22  H    0.256890
    23  H    0.237554
    24  H    0.250175
    25  H    0.250175
 Sum of Mulliken charges =   1.00000

 Dipole moment (field-independent basis, Debye):
    X=             -0.1393    Y=              0.1870    Z=              0.0000  Tot=              0.2332
 Quadrupole moment (field-independent basis, Debye-Ang):
   XX=            -31.1209   YY=            -56.2604   ZZ=            -84.1415
   XY=             -0.1767   XZ=             -0.0000   YZ=              0.0000

 Normal termination of Gaussian 16 at Tue Aug  2 11:52:23 2022.
