 Gaussian 16, Revision C.01,
 Gaussian 16:  ES64L-G16RevC.01  3-Jul-2019

 ---------------------------------------------------------------
 #n M062X/6-311++G(d,p) TD(NStates=1) EmpiricalDispersion=GD3 SP
 ---------------------------------------------------------------

 ------
 SP_150
 ------
 Symbolic Z-matrix:
 Charge =  1 Multiplicity = 1

                         Standard orientation:
 ---------------------------------------------------------------------
 Center     Atomic      Atomic             Coordinates (Angstroms)
 Number     Number       Type             X           Y           Z
 ---------------------------------------------------------------------
      1          6           0        2.500425   -1.348103    0.000000
      2          6           0        3.702976   -0.653214    0.000000
      3          6           0        3.681306    0.735649    0.000000
      4          6           0        2.461292    1.421048    0.000000
      5          6           0       -2.465504    1.395131    0.000000
      6          6           0       -3.689620    0.697483    0.000000
      7          6           0       -3.705180   -0.688867    0.000000
      8          6           0       -2.495289   -1.369468    0.000000
      9          6           0        0.004131   -1.465468    0.000000
     10          6           0        0.000000    1.429750    0.000000
     11          6           0        1.266414   -0.673632    0.000000
     12          6           0        1.235793    0.735642    0.000000
     13          6           0       -1.258514   -0.680757    0.000000
     14          6           0       -1.236923    0.724319    0.000000
     15          1           0        2.503738   -2.431140    0.000000
     16          1           0        4.641050   -1.188076    0.000000
     17          1           0        4.605337    1.295656    0.000000
     18          1           0        2.457817    2.503364    0.000000
     19          1           0       -0.005162    2.510539    0.000000
     20          1           0       -2.475567    2.477543    0.000000
     21          1           0       -4.614751    1.255895    0.000000
     22          1           0       -4.638682   -1.231195    0.000000
     23          1           0       -2.484458   -2.452548    0.000000
     24          1           0        0.001418   -2.148554    0.862610
     25          1           0        0.001418   -2.148554   -0.862610
 ---------------------------------------------------------------------

 SCF Done:  E(RM062X) =  -539.760141516     A.U. after   15 cycles

 Excitation energies and oscillator strengths:

 Excited State   1:      Singlet-A'     2.8200 eV  439.66 nm  f=0.0278  <S**2>=0.000
      47 -> 48         0.70422
 This state for optimization and/or second-order correction.
 Total Energy, E(TD-HF/TD-DFT) =  -539.656509067
 Copying the excited state density for this state as the 1-particle RhoCI density.

 The electronic state is 1-A'.
 Alpha  occ. eigenvalues --  -10.77688 -10.73386 -10.73239 -10.72517 -10.72401
 Alpha  occ. eigenvalues --  -10.71444 -10.71307 -10.71122 -10.71019 -10.70865
 Alpha  occ. eigenvalues --  -10.70008 -10.69941 -10.69689 -10.69608  -1.16375
 Alpha  occ. eigenvalues --   -1.12419  -1.06946  -1.05617  -1.01312  -1.00107
 Alpha  occ. eigenvalues --   -0.95788  -0.91028  -0.86409  -0.85876  -0.83794
 Alpha  occ. eigenvalues --   -0.78387  -0.75965  -0.74410  -0.69597  -0.69231
 Alpha  occ. eigenvalues --   -0.68477  -0.68161  -0.68126  -0.64734  -0.64251
 Alpha  occ. eigenvalues --   -0.62954  -0.61854  -0.60096  -0.59634  -0.59109
 Alpha  occ. eigenvalues --   -0.56861  -0.55234  -0.54779  -0.52447  -0.46599
 Alpha  occ. eigenvalues --   -0.46058  -0.44524
 Alpha virt. eigenvalues --   -0.26115  -0.14662  -0.14100  -0.12778  -0.11175
 Alpha virt. eigenvalues --   -0.10078  -0.09231  -0.07984  -0.07982  -0.07474
 Alpha virt. eigenvalues --   -0.07194  -0.07140  -0.05647  -0.05577  -0.05327

 Mulliken charges:
               1
     1  C    0.087018
     2  C   -0.404397
     3  C   -0.439179
     4  C    0.001276
     5  C   -0.003042
     6  C   -0.440877
     7  C   -0.405964
     8  C    0.092240
     9  C   -0.362099
    10  C    0.076078
    11  C   -0.627932
    12  C    0.717913
    13  C   -0.620609
    14  C    0.711750
    15  H    0.238136
    16  H    0.256667
    17  H    0.249177
    18  H    0.222550
    19  H    0.190724
    20  H    0.221662
    21  H    0.248283
    22  H    0.255529
    23  H    0.237497
    24  H    0.248799
    25  H    0.248799
 Sum of Mulliken charges =   1.00000

 Dipole moment (field-independent basis, Debye):
    X=              0.1394    Y=              0.1975    Z=              0.0000  Tot=              0.2417
 Quadrupole moment (field-independent basis, Debye-Ang):
   XX=            -31.0535   YY=            -56.2795   ZZ=            -84.1441
   XY=              0.1770   XZ=             -0.0000   YZ=              0.0000

 Normal termination of Gaussian 16 at Tue Aug  2 13:38:01 2022.
