 Gaussian 16, Revision C.01,
 Gaussian 16:  ES64L-G16RevC.01  3-Jul-2019

 ---------------------------------------------------------------
 #n M062X/6-311++G(d,p) TD(NStates=1) EmpiricalDispersion=GD3 SP
 ---------------------------------------------------------------

 ------
 SP_-75
 ------
 Symbolic Z-matrix:
 Charge =  1 Multiplicity = 1

                         Standard orientation:
 ---------------------------------------------------------------------
 Center     Atomic      Atomic             Coordinates (Angstroms)
 Number     Number       Type             X           Y           Z
 ---------------------------------------------------------------------
      1          6           0        2.463264    1.466013    0.000000
      2          6           0        2.512256    2.852551    0.000000
      3          6           0        1.310724    3.521074    0.000000
      4          6           0        0.058586    2.795129    0.000000
      5          6           0       -2.510077   -1.408878    0.000000
      6          6           0       -2.526611   -2.769758    0.000000
      7          6           0       -1.322852   -3.481381    0.000000
      8          6           0       -0.099693   -2.813356    0.000000
      9          6           0        1.258961   -0.732980    0.000000
     10          6           0       -1.254496    0.687279    0.000000
     11          6           0        1.210391    0.735355    0.000000
     12          6           0        0.000000    1.415355    0.000000
     13          6           0       -0.058281   -1.447286    0.000000
     14          6           0       -1.277117   -0.703930    0.000000
     15          1           0        3.379282    0.886720    0.000000
     16          1           0        3.453631    3.379263    0.000000
     17          1           0        1.273880    4.602254    0.000000
     18          1           0       -0.858553    3.371637    0.000000
     19          1           0       -2.179394    1.246875    0.000000
     20          1           0       -3.430463   -0.839971    0.000000
     21          1           0       -3.465447   -3.305228    0.000000
     22          1           0       -1.338556   -4.562118    0.000000
     23          1           0        0.820229   -3.384825    0.000000
     24          1           0        1.877532   -1.042863    0.860410
     25          1           0        1.877532   -1.042863   -0.860410
 ---------------------------------------------------------------------

 SCF Done:  E(RM062X) =  -539.751463246     A.U. after   16 cycles

 Excitation energies and oscillator strengths:

 Excited State   1:      Singlet-A'     2.6207 eV  473.09 nm  f=0.0181  <S**2>=0.000
      47 -> 48         0.70347
 This state for optimization and/or second-order correction.
 Total Energy, E(TD-HF/TD-DFT) =  -539.655154031
 Copying the excited state density for this state as the 1-particle RhoCI density.

 The electronic state is 1-A'.
 Alpha  occ. eigenvalues --  -10.77554 -10.73888 -10.72906 -10.72598 -10.72206
 Alpha  occ. eigenvalues --  -10.71942 -10.71865 -10.70996 -10.70722 -10.70267
 Alpha  occ. eigenvalues --  -10.69995 -10.69906 -10.69680 -10.69267  -1.16564
 Alpha  occ. eigenvalues --   -1.12464  -1.06936  -1.05877  -1.01275  -1.00474
 Alpha  occ. eigenvalues --   -0.95499  -0.91011  -0.86448  -0.85883  -0.83758
 Alpha  occ. eigenvalues --   -0.78307  -0.76165  -0.74349  -0.69854  -0.69341
 Alpha  occ. eigenvalues --   -0.68246  -0.68091  -0.68022  -0.65391  -0.64222
 Alpha  occ. eigenvalues --   -0.62668  -0.61481  -0.60562  -0.59184  -0.59170
 Alpha  occ. eigenvalues --   -0.56950  -0.55266  -0.54456  -0.52442  -0.47488
 Alpha  occ. eigenvalues --   -0.46135  -0.43612
 Alpha virt. eigenvalues --   -0.26117  -0.14664  -0.14070  -0.12757  -0.11194
 Alpha virt. eigenvalues --   -0.10095  -0.09269  -0.07952  -0.07915  -0.07487
 Alpha virt. eigenvalues --   -0.07213  -0.07130  -0.05648  -0.05571  -0.05359

 Mulliken charges:
               1
     1  C    0.119763
     2  C   -0.414443
     3  C   -0.444816
     4  C   -0.011779
     5  C    0.027877
     6  C   -0.430923
     7  C   -0.400151
     8  C    0.069069
     9  C   -0.351497
    10  C    0.076656
    11  C   -0.591311
    12  C    0.664822
    13  C   -0.656048
    14  C    0.723413
    15  H    0.234857
    16  H    0.251191
    17  H    0.244856
    18  H    0.218191
    19  H    0.189284
    20  H    0.226234
    21  H    0.252863
    22  H    0.261286
    23  H    0.240510
    24  H    0.250048
    25  H    0.250048
 Sum of Mulliken charges =   1.00000

 Dipole moment (field-independent basis, Debye):
    X=             -0.7877    Y=             -0.9882    Z=              0.0000  Tot=              1.2637
 Quadrupole moment (field-independent basis, Debye-Ang):
   XX=            -49.0523   YY=            -38.1879   ZZ=            -84.1281
   XY=             11.4649   XZ=              0.0000   YZ=             -0.0000

 Normal termination of Gaussian 16 at Tue Aug  2 11:30:24 2022.
