 Gaussian 16, Revision C.01,
 Gaussian 16:  ES64L-G16RevC.01  3-Jul-2019

 ----------------------------------------------
 #n M062X/cc-pvtz TD EmpiricalDispersion=GD3 SP
 ----------------------------------------------

 -----
 SP_13
 -----
 Symbolic Z-matrix:
 Charge =  1 Multiplicity = 1

                         Standard orientation:
 ---------------------------------------------------------------------
 Center     Atomic      Atomic             Coordinates (Angstroms)
 Number     Number       Type             X           Y           Z
 ---------------------------------------------------------------------
      1          6           0        2.493829   -1.354924    0.000000
      2          6           0        3.700879   -0.662657    0.000000
      3          6           0        3.681512    0.723780    0.000000
      4          6           0        2.462013    1.414252    0.000000
      5          6           0       -2.464238    1.400774    0.000000
      6          6           0       -3.686051    0.703729    0.000000
      7          6           0       -3.701979   -0.681318    0.000000
      8          6           0       -2.491082   -1.366062    0.000000
      9          6           0        0.002251   -1.452873    0.000000
     10          6           0        0.000000    1.429136    0.000000
     11          6           0        1.264222   -0.675312    0.000000
     12          6           0        1.237141    0.733750    0.000000
     13          6           0       -1.259875   -0.678898    0.000000
     14          6           0       -1.237882    0.727872    0.000000
     15          1           0        2.492994   -2.438139    0.000000
     16          1           0        4.637332   -1.200377    0.000000
     17          1           0        4.606618    1.282747    0.000000
     18          1           0        2.462854    2.496745    0.000000
     19          1           0       -0.002690    2.510210    0.000000
     20          1           0       -2.472214    2.483330    0.000000
     21          1           0       -4.611791    1.261775    0.000000
     22          1           0       -4.635964   -1.223047    0.000000
     23          1           0       -2.482786   -2.449296    0.000000
     24          1           0        0.000603   -2.145722    0.859460
     25          1           0        0.000603   -2.145722   -0.859460
 ---------------------------------------------------------------------

 SCF Done:  E(RM062X) =  -539.815802361     A.U. after   14 cycles

 Excitation energies and oscillator strengths:

 Excited State   1:      Singlet-A'     2.8215 eV  439.42 nm  f=0.0276  <S**2>=0.000
      47 -> 48         0.70414
 This state for optimization and/or second-order correction.
 Total Energy, E(TD-HF/TD-DFT) =  -539.712112406
 Copying the excited state density for this state as the 1-particle RhoCI density.

 Excited State   2:      Singlet-A'     3.2665 eV  379.56 nm  f=0.0037  <S**2>=0.000
      45 -> 48         0.61478
      46 -> 48         0.33783

 Excited State   3:      Singlet-A'     3.4856 eV  355.70 nm  f=0.5464  <S**2>=0.000
      45 -> 48        -0.33985
      46 -> 48         0.61037

 The electronic state is 1-A'.
 Alpha  occ. eigenvalues --  -10.77532 -10.73144 -10.73067 -10.72290 -10.72227
 Alpha  occ. eigenvalues --  -10.71270 -10.71198 -10.70987 -10.70846 -10.70838
 Alpha  occ. eigenvalues --  -10.69857 -10.69824 -10.69547 -10.69505  -1.16262
 Alpha  occ. eigenvalues --   -1.12290  -1.06777  -1.05583  -1.01158  -1.00040
 Alpha  occ. eigenvalues --   -0.95633  -0.90880  -0.86213  -0.85733  -0.83651
 Alpha  occ. eigenvalues --   -0.78241  -0.75788  -0.74199  -0.69350  -0.69080
 Alpha  occ. eigenvalues --   -0.68300  -0.68016  -0.67980  -0.64506  -0.64061
 Alpha  occ. eigenvalues --   -0.62824  -0.61659  -0.59947  -0.59661  -0.58898
 Alpha  occ. eigenvalues --   -0.56693  -0.54989  -0.54606  -0.52415  -0.46583
 Alpha  occ. eigenvalues --   -0.45998  -0.44433
 Alpha virt. eigenvalues --   -0.25959  -0.14401  -0.13959  -0.12485  -0.06851
 Alpha virt. eigenvalues --   -0.05510  -0.05366  -0.04073  -0.02675  -0.01624
 Alpha virt. eigenvalues --   -0.00208   0.00381   0.00577   0.01936   0.02306

 Mulliken charges:
               1
     1  C   -0.100109
     2  C   -0.029531
     3  C   -0.120780
     4  C   -0.059638
     5  C   -0.064610
     6  C   -0.119972
     7  C   -0.030946
     8  C   -0.100139
     9  C   -0.308892
    10  C   -0.067052
    11  C    0.104608
    12  C    0.054584
    13  C    0.102814
    14  C    0.056528
    15  H    0.137018
    16  H    0.147861
    17  H    0.142758
    18  H    0.131417
    19  H    0.159981
    20  H    0.130984
    21  H    0.142756
    22  H    0.147965
    23  H    0.136776
    24  H    0.202809
    25  H    0.202809
 Sum of Mulliken charges =   1.00000

 Dipole moment (field-independent basis, Debye):
    X=              0.0747    Y=              0.1960    Z=              0.0000  Tot=              0.2098
 Quadrupole moment (field-independent basis, Debye-Ang):
   XX=            -30.9542   YY=            -56.4102   ZZ=            -83.3715
   XY=              0.0906   XZ=              0.0000   YZ=             -0.0000

 Normal termination of Gaussian 16 at Thu Jul 21 13:12:17 2022.
