 Gaussian 16, Revision C.01,
 Gaussian 16:  ES64L-G16RevC.01  3-Jul-2019

 ----------------------------------------------
 #n M062X/cc-pvtz TD EmpiricalDispersion=GD3 SP
 ----------------------------------------------

 -----
 SP_20
 -----
 Symbolic Z-matrix:
 Charge =  1 Multiplicity = 1

                         Standard orientation:
 ---------------------------------------------------------------------
 Center     Atomic      Atomic             Coordinates (Angstroms)
 Number     Number       Type             X           Y           Z
 ---------------------------------------------------------------------
      1          6           0       -2.365836   -1.547432    0.000000
      2          6           0       -2.317378   -2.940374    0.000000
      3          6           0       -1.086420   -3.588358    0.000000
      4          6           0        0.085668   -2.854397    0.000000
      5          6           0        2.383413    1.502810    0.000000
      6          6           0        2.350604    2.927431    0.000000
      7          6           0        1.146578    3.600990    0.000000
      8          6           0       -0.024142    2.850261    0.000000
      9          6           0       -1.275604    0.688258    0.000000
     10          6           0        1.249079   -0.694055    0.000000
     11          6           0       -1.200767   -0.796332    0.000000
     12          6           0        0.059814   -1.445669    0.000000
     13          6           0        0.000000    1.423744    0.000000
     14          6           0        1.220931    0.740816    0.000000
     15          1           0       -3.324718   -1.043656    0.000000
     16          1           0       -3.234132   -3.511865    0.000000
     17          1           0       -1.043405   -4.668319    0.000000
     18          1           0        1.043135   -3.358962    0.000000
     19          1           0        2.204384   -1.200253    0.000000
     20          1           0        3.345729    1.005945    0.000000
     21          1           0        3.286363    3.469331    0.000000
     22          1           0        1.110011    4.679609    0.000000
     23          1           0       -0.987492    3.346293    0.000000
     24          1           0       -1.877757    1.037865    0.858548
     25          1           0       -1.877757    1.037865   -0.858548
 ---------------------------------------------------------------------

 SCF Done:  E(RM062X) =  -539.813802394     A.U. after   14 cycles

 Excitation energies and oscillator strengths:

 Excited State   1:      Singlet-A'     2.7650 eV  448.40 nm  f=0.0238  <S**2>=0.000
      47 -> 48         0.70364
 This state for optimization and/or second-order correction.
 Total Energy, E(TD-HF/TD-DFT) =  -539.712189386
 Copying the excited state density for this state as the 1-particle RhoCI density.

 Excited State   2:      Singlet-A'     3.3284 eV  372.50 nm  f=0.0137  <S**2>=0.000
      45 -> 48         0.63631
      46 -> 48         0.29437

 Excited State   3:      Singlet-A'     3.4914 eV  355.11 nm  f=0.5387  <S**2>=0.000
      45 -> 48        -0.29709
      46 -> 48         0.63197

 The electronic state is 1-A'.
 Alpha  occ. eigenvalues --  -10.77494 -10.73386 -10.72773 -10.72489 -10.71985
 Alpha  occ. eigenvalues --  -10.71508 -10.71499 -10.70936 -10.70830 -10.70370
 Alpha  occ. eigenvalues --  -10.69974 -10.69711 -10.69683 -10.69354  -1.16312
 Alpha  occ. eigenvalues --   -1.12305  -1.06772  -1.05657  -1.01148  -1.00141
 Alpha  occ. eigenvalues --   -0.95559  -0.90883  -0.86220  -0.85738  -0.83645
 Alpha  occ. eigenvalues --   -0.78224  -0.75846  -0.74182  -0.69430  -0.69096
 Alpha  occ. eigenvalues --   -0.68243  -0.68003  -0.67941  -0.64712  -0.64036
 Alpha  occ. eigenvalues --   -0.62730  -0.61582  -0.60142  -0.59456  -0.58923
 Alpha  occ. eigenvalues --   -0.56712  -0.55026  -0.54504  -0.52411  -0.46830
 Alpha  occ. eigenvalues --   -0.46030  -0.44166
 Alpha virt. eigenvalues --   -0.25956  -0.14403  -0.13951  -0.12479  -0.06831
 Alpha virt. eigenvalues --   -0.05521  -0.05381  -0.04090  -0.02656  -0.01629
 Alpha virt. eigenvalues --   -0.00218   0.00362   0.00590   0.01911   0.02345

 Mulliken charges:
               1
     1  C   -0.100516
     2  C   -0.024708
     3  C   -0.123507
     4  C   -0.042170
     5  C   -0.081871
     6  C   -0.116995
     7  C   -0.036139
     8  C   -0.100619
     9  C   -0.309281
    10  C   -0.067679
    11  C    0.112257
    12  C    0.047835
    13  C    0.098028
    14  C    0.063284
    15  H    0.137779
    16  H    0.147579
    17  H    0.142676
    18  H    0.132873
    19  H    0.159747
    20  H    0.129397
    21  H    0.142651
    22  H    0.148399
    23  H    0.135862
    24  H    0.202557
    25  H    0.202557
 Sum of Mulliken charges =   1.00000

 Dipole moment (field-independent basis, Debye):
    X=             -0.1164    Y=             -0.6178    Z=             -0.0000  Tot=              0.6287
 Quadrupole moment (field-independent basis, Debye-Ang):
   XX=            -51.0070   YY=            -36.3337   ZZ=            -83.3680
   XY=             10.4221   XZ=              0.0000   YZ=             -0.0000

 Normal termination of Gaussian 16 at Thu Jul 21 14:20:36 2022.
