 Gaussian 16, Revision C.01,
 Gaussian 16:  ES64L-G16RevC.01  3-Jul-2019

 ----------------------------------------------
 #n M062X/cc-pvtz TD EmpiricalDispersion=GD3 SP
 ----------------------------------------------

 -----
 SP_22
 -----
 Symbolic Z-matrix:
 Charge =  1 Multiplicity = 1

                         Standard orientation:
 ---------------------------------------------------------------------
 Center     Atomic      Atomic             Coordinates (Angstroms)
 Number     Number       Type             X           Y           Z
 ---------------------------------------------------------------------
      1          6           0       -2.362997   -1.545949    0.000000
      2          6           0       -2.311205   -2.939439    0.000000
      3          6           0       -1.079875   -3.589514    0.000000
      4          6           0        0.088154   -2.859004    0.000000
      5          6           0        2.378070    1.502225    0.000000
      6          6           0        2.345582    2.932099    0.000000
      7          6           0        1.143750    3.606377    0.000000
      8          6           0       -0.025102    2.852913    0.000000
      9          6           0       -1.274337    0.688552    0.000000
     10          6           0        1.246525   -0.698663    0.000000
     11          6           0       -1.202635   -0.797421    0.000000
     12          6           0        0.060044   -1.448103    0.000000
     13          6           0        0.000000    1.421631    0.000000
     14          6           0        1.218919    0.739776    0.000000
     15          1           0       -3.323499   -1.045272    0.000000
     16          1           0       -3.227715   -3.511561    0.000000
     17          1           0       -1.039770   -4.669604    0.000000
     18          1           0        1.047020   -3.360794    0.000000
     19          1           0        2.202496   -1.203634    0.000000
     20          1           0        3.341961    1.008128    0.000000
     21          1           0        3.282877    3.471631    0.000000
     22          1           0        1.106399    4.684831    0.000000
     23          1           0       -0.990107    3.345928    0.000000
     24          1           0       -1.874515    1.043732    0.858287
     25          1           0       -1.874515    1.043732   -0.858287
 ---------------------------------------------------------------------

 SCF Done:  E(RM062X) =  -539.812666035     A.U. after   14 cycles

 Excitation energies and oscillator strengths:

 Excited State   1:      Singlet-A'     2.7377 eV  452.88 nm  f=0.0224  <S**2>=0.000
      47 -> 48         0.70351
 This state for optimization and/or second-order correction.
 Total Energy, E(TD-HF/TD-DFT) =  -539.712058222
 Copying the excited state density for this state as the 1-particle RhoCI density.

 Excited State   2:      Singlet-A'     3.3565 eV  369.39 nm  f=0.0217  <S**2>=0.000
      45 -> 48         0.63378
      46 -> 48         0.29913

 Excited State   3:      Singlet-A'     3.4946 eV  354.79 nm  f=0.5311  <S**2>=0.000
      45 -> 48        -0.30218
      46 -> 48         0.62958

 The electronic state is 1-A'.
 Alpha  occ. eigenvalues --  -10.77475 -10.73453 -10.72689 -10.72542 -10.71913
 Alpha  occ. eigenvalues --  -10.71648 -10.71573 -10.70859 -10.70828 -10.70238
 Alpha  occ. eigenvalues --  -10.70006 -10.69721 -10.69679 -10.69310  -1.16335
 Alpha  occ. eigenvalues --   -1.12310  -1.06769  -1.05689  -1.01142  -1.00189
 Alpha  occ. eigenvalues --   -0.95520  -0.90881  -0.86224  -0.85738  -0.83640
 Alpha  occ. eigenvalues --   -0.78213  -0.75872  -0.74172  -0.69472  -0.69106
 Alpha  occ. eigenvalues --   -0.68212  -0.67998  -0.67919  -0.64809  -0.64029
 Alpha  occ. eigenvalues --   -0.62678  -0.61538  -0.60217  -0.59381  -0.58937
 Alpha  occ. eigenvalues --   -0.56720  -0.55041  -0.54449  -0.52410  -0.46954
 Alpha  occ. eigenvalues --   -0.46040  -0.44039
 Alpha virt. eigenvalues --   -0.25956  -0.14403  -0.13946  -0.12475  -0.06819
 Alpha virt. eigenvalues --   -0.05527  -0.05387  -0.04100  -0.02646  -0.01631
 Alpha virt. eigenvalues --   -0.00221   0.00352   0.00596   0.01898   0.02364

 Mulliken charges:
               1
     1  C   -0.100655
     2  C   -0.023327
     3  C   -0.124273
     4  C   -0.037198
     5  C   -0.086820
     6  C   -0.116133
     7  C   -0.037626
     8  C   -0.100748
     9  C   -0.309457
    10  C   -0.067757
    11  C    0.114411
    12  C    0.045838
    13  C    0.096642
    14  C    0.065174
    15  H    0.138021
    16  H    0.147528
    17  H    0.142663
    18  H    0.133292
    19  H    0.159667
    20  H    0.128944
    21  H    0.142623
    22  H    0.148555
    23  H    0.135622
    24  H    0.202506
    25  H    0.202506
 Sum of Mulliken charges =   1.00000

 Dipole moment (field-independent basis, Debye):
    X=             -0.1893    Y=             -0.7479    Z=              0.0000  Tot=              0.7715
 Quadrupole moment (field-independent basis, Debye-Ang):
   XX=            -51.0771   YY=            -36.2484   ZZ=            -83.3659
   XY=             10.3809   XZ=             -0.0000   YZ=              0.0000

 Normal termination of Gaussian 16 at Thu Jul 21 15:22:18 2022.
