 Gaussian 16, Revision C.01,
 Gaussian 16:  ES64L-G16RevC.01  3-Jul-2019

 ----------------------------------------------
 #n M062X/cc-pvtz TD EmpiricalDispersion=GD3 SP
 ----------------------------------------------

 -----
 SP_19
 -----
 Symbolic Z-matrix:
 Charge =  1 Multiplicity = 1

                         Standard orientation:
 ---------------------------------------------------------------------
 Center     Atomic      Atomic             Coordinates (Angstroms)
 Number     Number       Type             X           Y           Z
 ---------------------------------------------------------------------
      1          6           0       -2.367256   -1.548174    0.000000
      2          6           0       -2.320463   -2.940841    0.000000
      3          6           0       -1.089689   -3.587778    0.000000
      4          6           0        0.084431   -2.852092    0.000000
      5          6           0        2.386083    1.503101    0.000000
      6          6           0        2.353110    2.925097    0.000000
      7          6           0        1.147986    3.598296    0.000000
      8          6           0       -0.023666    2.848935    0.000000
      9          6           0       -1.276239    0.688110    0.000000
     10          6           0        1.250360   -0.691752    0.000000
     11          6           0       -1.199832   -0.795790    0.000000
     12          6           0        0.059702   -1.444453    0.000000
     13          6           0        0.000000    1.424801    0.000000
     14          6           0        1.221938    0.741335    0.000000
     15          1           0       -3.325326   -1.042851    0.000000
     16          1           0       -3.237338   -3.512017    0.000000
     17          1           0       -1.045217   -4.667676    0.000000
     18          1           0        1.041197   -3.358044    0.000000
     19          1           0        2.205332   -1.198562    0.000000
     20          1           0        3.347611    1.004854    0.000000
     21          1           0        3.288101    3.468183    0.000000
     22          1           0        1.111810    4.676997    0.000000
     23          1           0       -0.986188    3.346474    0.000000
     24          1           0       -1.879384    1.034932    0.858678
     25          1           0       -1.879384    1.034932   -0.858678
 ---------------------------------------------------------------------

 SCF Done:  E(RM062X) =  -539.814274973     A.U. after   14 cycles

 Excitation energies and oscillator strengths:

 Excited State   1:      Singlet-A'     2.7773 eV  446.42 nm  f=0.0245  <S**2>=0.000
      47 -> 48         0.70372
 This state for optimization and/or second-order correction.
 Total Energy, E(TD-HF/TD-DFT) =  -539.712210752
 Copying the excited state density for this state as the 1-particle RhoCI density.

 Excited State   2:      Singlet-A'     3.3156 eV  373.94 nm  f=0.0110  <S**2>=0.000
      45 -> 48         0.63504
      46 -> 48         0.29733

 Excited State   3:      Singlet-A'     3.4901 eV  355.24 nm  f=0.5411  <S**2>=0.000
      45 -> 48        -0.29991
      46 -> 48         0.63066

 The electronic state is 1-A'.
 Alpha  occ. eigenvalues --  -10.77502 -10.73352 -10.72815 -10.72462 -10.72021
 Alpha  occ. eigenvalues --  -10.71475 -10.71425 -10.70974 -10.70831 -10.70437
 Alpha  occ. eigenvalues --  -10.69957 -10.69727 -10.69664 -10.69376  -1.16302
 Alpha  occ. eigenvalues --   -1.12302  -1.06773  -1.05643  -1.01150  -1.00120
 Alpha  occ. eigenvalues --   -0.95576  -0.90883  -0.86219  -0.85738  -0.83647
 Alpha  occ. eigenvalues --   -0.78228  -0.75834  -0.74186  -0.69412  -0.69093
 Alpha  occ. eigenvalues --   -0.68257  -0.68005  -0.67950  -0.64668  -0.64040
 Alpha  occ. eigenvalues --   -0.62754  -0.61600  -0.60106  -0.59492  -0.58917
 Alpha  occ. eigenvalues --   -0.56709  -0.55018  -0.54528  -0.52412  -0.46776
 Alpha  occ. eigenvalues --   -0.46025  -0.44223
 Alpha virt. eigenvalues --   -0.25956  -0.14402  -0.13953  -0.12480  -0.06836
 Alpha virt. eigenvalues --   -0.05519  -0.05379  -0.04086  -0.02661  -0.01628
 Alpha virt. eigenvalues --   -0.00217   0.00367   0.00587   0.01917   0.02337

 Mulliken charges:
               1
     1  C   -0.100449
     2  C   -0.025399
     3  C   -0.123122
     4  C   -0.044659
     5  C   -0.079394
     6  C   -0.117424
     7  C   -0.035399
     8  C   -0.100549
     9  C   -0.309206
    10  C   -0.067643
    11  C    0.111178
    12  C    0.048832
    13  C    0.098726
    14  C    0.062335
    15  H    0.137662
    16  H    0.147608
    17  H    0.142684
    18  H    0.132665
    19  H    0.159783
    20  H    0.129623
    21  H    0.142665
    22  H    0.148326
    23  H    0.135986
    24  H    0.202586
    25  H    0.202586
 Sum of Mulliken charges =   1.00000

 Dipole moment (field-independent basis, Debye):
    X=             -0.0800    Y=             -0.5526    Z=             -0.0000  Tot=              0.5583
 Quadrupole moment (field-independent basis, Debye-Ang):
   XX=            -50.9718   YY=            -36.3751   ZZ=            -83.3689
   XY=             10.4434   XZ=              0.0000   YZ=             -0.0000

 Normal termination of Gaussian 16 at Thu Jul 21 14:10:09 2022.
