 Gaussian 16, Revision C.01,
 Gaussian 16:  ES64L-G16RevC.01  3-Jul-2019

 ----------------------------------------------
 #n M062X/cc-pvtz TD EmpiricalDispersion=GD3 SP
 ----------------------------------------------

 -----
 SP_21
 -----
 Symbolic Z-matrix:
 Charge =  1 Multiplicity = 1

                         Standard orientation:
 ---------------------------------------------------------------------
 Center     Atomic      Atomic             Coordinates (Angstroms)
 Number     Number       Type             X           Y           Z
 ---------------------------------------------------------------------
      1          6           0       -2.364416   -1.546690    0.000000
      2          6           0       -2.314292   -2.939907    0.000000
      3          6           0       -1.083149   -3.588937    0.000000
      4          6           0        0.086909   -2.856701    0.000000
      5          6           0        2.380742    1.502518    0.000000
      6          6           0        2.348095    2.929765    0.000000
      7          6           0        1.145167    3.603684    0.000000
      8          6           0       -0.024620    2.851587    0.000000
      9          6           0       -1.274970    0.688405    0.000000
     10          6           0        1.247800   -0.696359    0.000000
     11          6           0       -1.201701   -0.796876    0.000000
     12          6           0        0.059928   -1.446886    0.000000
     13          6           0       -0.000000    1.422688    0.000000
     14          6           0        1.219925    0.740296    0.000000
     15          1           0       -3.324108   -1.044463    0.000000
     16          1           0       -3.230924   -3.511713    0.000000
     17          1           0       -1.041589   -4.668962    0.000000
     18          1           0        1.045076   -3.359879    0.000000
     19          1           0        2.203439   -1.201944    0.000000
     20          1           0        3.343845    1.007036    0.000000
     21          1           0        3.284621    3.470481    0.000000
     22          1           0        1.108208    4.682220    0.000000
     23          1           0       -0.988799    3.346111    0.000000
     24          1           0       -1.876134    1.040798    0.858417
     25          1           0       -1.876134    1.040798   -0.858417
 ---------------------------------------------------------------------

 SCF Done:  E(RM062X) =  -539.813266143     A.U. after   14 cycles

 Excitation energies and oscillator strengths:

 Excited State   1:      Singlet-A'     2.7518 eV  450.56 nm  f=0.0231  <S**2>=0.000
      47 -> 48         0.70357
 This state for optimization and/or second-order correction.
 Total Energy, E(TD-HF/TD-DFT) =  -539.712140245
 Copying the excited state density for this state as the 1-particle RhoCI density.

 Excited State   2:      Singlet-A'     3.3421 eV  370.98 nm  f=0.0171  <S**2>=0.000
      45 -> 48         0.63602
      46 -> 48         0.29470

 Excited State   3:      Singlet-A'     3.4929 eV  354.96 nm  f=0.5355  <S**2>=0.000
      45 -> 48        -0.29758
      46 -> 48         0.63174

 The electronic state is 1-A'.
 Alpha  occ. eigenvalues --  -10.77485 -10.73420 -10.72731 -10.72516 -10.71949
 Alpha  occ. eigenvalues --  -10.71573 -10.71540 -10.70898 -10.70829 -10.70304
 Alpha  occ. eigenvalues --  -10.69990 -10.69702 -10.69695 -10.69332  -1.16323
 Alpha  occ. eigenvalues --   -1.12307  -1.06770  -1.05672  -1.01145  -1.00164
 Alpha  occ. eigenvalues --   -0.95541  -0.90882  -0.86222  -0.85738  -0.83643
 Alpha  occ. eigenvalues --   -0.78219  -0.75858  -0.74177  -0.69450  -0.69101
 Alpha  occ. eigenvalues --   -0.68228  -0.68001  -0.67931  -0.64760  -0.64032
 Alpha  occ. eigenvalues --   -0.62705  -0.61561  -0.60179  -0.59419  -0.58929
 Alpha  occ. eigenvalues --   -0.56716  -0.55034  -0.54478  -0.52410  -0.46890
 Alpha  occ. eigenvalues --   -0.46035  -0.44104
 Alpha virt. eigenvalues --   -0.25956  -0.14403  -0.13949  -0.12477  -0.06825
 Alpha virt. eigenvalues --   -0.05524  -0.05384  -0.04095  -0.02651  -0.01630
 Alpha virt. eigenvalues --   -0.00220   0.00357   0.00593   0.01905   0.02355

 Mulliken charges:
               1
     1  C   -0.100585
     2  C   -0.024018
     3  C   -0.123890
     4  C   -0.039683
     5  C   -0.084346
     6  C   -0.116564
     7  C   -0.036881
     8  C   -0.100685
     9  C   -0.309365
    10  C   -0.067717
    11  C    0.113335
    12  C    0.046837
    13  C    0.097333
    14  C    0.064230
    15  H    0.137899
    16  H    0.147552
    17  H    0.142670
    18  H    0.133082
    19  H    0.159709
    20  H    0.129171
    21  H    0.142637
    22  H    0.148475
    23  H    0.135741
    24  H    0.202531
    25  H    0.202531
 Sum of Mulliken charges =   1.00000

 Dipole moment (field-independent basis, Debye):
    X=             -0.1528    Y=             -0.6829    Z=             -0.0000  Tot=              0.6998
 Quadrupole moment (field-independent basis, Debye-Ang):
   XX=            -51.0422   YY=            -36.2914   ZZ=            -83.3670
   XY=             10.4013   XZ=              0.0000   YZ=             -0.0000

 Normal termination of Gaussian 16 at Thu Jul 21 14:29:41 2022.
