 Gaussian 16, Revision C.01,
 Gaussian 16:  ES64L-G16RevC.01  3-Jul-2019

 ----------------------------------------------
 #n M062X/cc-pvtz TD EmpiricalDispersion=GD3 SP
 ----------------------------------------------

 -----
 SP_15
 -----
 Symbolic Z-matrix:
 Charge =  1 Multiplicity = 1

                         Standard orientation:
 ---------------------------------------------------------------------
 Center     Atomic      Atomic             Coordinates (Angstroms)
 Number     Number       Type             X           Y           Z
 ---------------------------------------------------------------------
      1          6           0       -2.372936   -1.551148    0.000000
      2          6           0       -2.332791   -2.942700    0.000000
      3          6           0       -1.102739   -3.585442    0.000000
      4          6           0        0.079520   -2.842867    0.000000
      5          6           0        2.396764    1.504261    0.000000
      6          6           0        2.363098    2.915759    0.000000
      7          6           0        1.153571    3.587524    0.000000
      8          6           0       -0.021794    2.843633    0.000000
      9          6           0       -1.278788    0.687518    0.000000
     10          6           0        1.255511   -0.682544    0.000000
     11          6           0       -1.196084   -0.793640    0.000000
     12          6           0        0.059274   -1.439588    0.000000
     13          6           0       -0.000000    1.429032    0.000000
     14          6           0        1.225966    0.743415    0.000000
     15          1           0       -3.327752   -1.039647    0.000000
     16          1           0       -3.250148   -3.512625    0.000000
     17          1           0       -1.052433   -4.665103    0.000000
     18          1           0        1.033476   -3.354353    0.000000
     19          1           0        2.209150   -1.191794    0.000000
     20          1           0        3.355132    1.000499    0.000000
     21          1           0        3.295030    3.463602    0.000000
     22          1           0        1.118955    4.666553    0.000000
     23          1           0       -0.980993    3.347186    0.000000
     24          1           0       -1.885925    1.023203    0.859199
     25          1           0       -1.885925    1.023203   -0.859199
 ---------------------------------------------------------------------

 SCF Done:  E(RM062X) =  -539.815531909     A.U. after   14 cycles

 Excitation energies and oscillator strengths:

 Excited State   1:      Singlet-A'     2.8135 eV  440.68 nm  f=0.0269  <S**2>=0.000
      47 -> 48         0.70405
 This state for optimization and/or second-order correction.
 Total Energy, E(TD-HF/TD-DFT) =  -539.712137970
 Copying the excited state density for this state as the 1-particle RhoCI density.

 Excited State   2:      Singlet-A'     3.2763 eV  378.42 nm  f=0.0049  <S**2>=0.000
      45 -> 48         0.62116
      46 -> 48         0.32585

 Excited State   3:      Singlet-A'     3.4866 eV  355.60 nm  f=0.5457  <S**2>=0.000
      45 -> 48        -0.32799
      46 -> 48         0.61674

 The electronic state is 1-A'.
 Alpha  occ. eigenvalues --  -10.77526 -10.73214 -10.72983 -10.72349 -10.72160
 Alpha  occ. eigenvalues --  -10.71340 -10.71132 -10.71125 -10.70834 -10.70708
 Alpha  occ. eigenvalues --  -10.69891 -10.69792 -10.69586 -10.69462  -1.16271
 Alpha  occ. eigenvalues --   -1.12294  -1.06776  -1.05598  -1.01156  -1.00057
 Alpha  occ. eigenvalues --   -0.95623  -0.90882  -0.86214  -0.85735  -0.83651
 Alpha  occ. eigenvalues --   -0.78239  -0.75799  -0.74197  -0.69360  -0.69083
 Alpha  occ. eigenvalues --   -0.68293  -0.68013  -0.67975  -0.64536  -0.64057
 Alpha  occ. eigenvalues --   -0.62816  -0.61649  -0.59981  -0.59622  -0.58901
 Alpha  occ. eigenvalues --   -0.56697  -0.54994  -0.54595  -0.52414  -0.46618
 Alpha  occ. eigenvalues --   -0.46004  -0.44394
 Alpha virt. eigenvalues --   -0.25958  -0.14402  -0.13958  -0.12484  -0.06849
 Alpha virt. eigenvalues --   -0.05512  -0.05370  -0.04075  -0.02673  -0.01625
 Alpha virt. eigenvalues --   -0.00211   0.00379   0.00579   0.01933   0.02312

 Mulliken charges:
               1
     1  C   -0.100193
     2  C   -0.028166
     3  C   -0.121579
     4  C   -0.054635
     5  C   -0.069485
     6  C   -0.119135
     7  C   -0.032466
     8  C   -0.100240
     9  C   -0.308981
    10  C   -0.067515
    11  C    0.106852
    12  C    0.052807
    13  C    0.101540
    14  C    0.058517
    15  H    0.137216
    16  H    0.147757
    17  H    0.142716
    18  H    0.131833
    19  H    0.159896
    20  H    0.130531
    21  H    0.142717
    22  H    0.148061
    23  H    0.136504
    24  H    0.202725
    25  H    0.202725
 Sum of Mulliken charges =   1.00000

 Dipole moment (field-independent basis, Debye):
    X=              0.0651    Y=             -0.2904    Z=             -0.0000  Tot=              0.2976
 Quadrupole moment (field-independent basis, Debye-Ang):
   XX=            -50.8295   YY=            -36.5328   ZZ=            -83.3711
   XY=             10.5332   XZ=              0.0000   YZ=             -0.0000

 Normal termination of Gaussian 16 at Thu Jul 21 13:31:56 2022.
