 Gaussian 16, Revision C.01,
 Gaussian 16:  ES64L-G16RevC.01  3-Jul-2019

 ----------------------------------------------
 #n M062X/cc-pvtz TD EmpiricalDispersion=GD3 SP
 ----------------------------------------------

 -----
 SP_11
 -----
 Symbolic Z-matrix:
 Charge =  1 Multiplicity = 1

                         Standard orientation:
 ---------------------------------------------------------------------
 Center     Atomic      Atomic             Coordinates (Angstroms)
 Number     Number       Type             X           Y           Z
 ---------------------------------------------------------------------
      1          6           0        2.491459   -1.365936    0.000000
      2          6           0        3.702118   -0.681326    0.000000
      3          6           0        3.686182    0.703876    0.000000
      4          6           0        2.464289    1.400833    0.000000
      5          6           0       -2.462065    1.414310    0.000000
      6          6           0       -3.681642    0.723926    0.000000
      7          6           0       -3.701018   -0.662667    0.000000
      8          6           0       -2.494205   -1.354796    0.000000
      9          6           0       -0.002253   -1.453862    0.000000
     10          6           0       -0.000000    1.429254    0.000000
     11          6           0        1.259897   -0.678820    0.000000
     12          6           0        1.237792    0.727855    0.000000
     13          6           0       -1.264244   -0.675234    0.000000
     14          6           0       -1.237051    0.733731    0.000000
     15          1           0        2.483135   -2.449148    0.000000
     16          1           0        4.636141   -1.223004    0.000000
     17          1           0        4.611878    1.261950    0.000000
     18          1           0        2.472228    2.483369    0.000000
     19          1           0        0.002690    2.510313    0.000000
     20          1           0       -2.462869    2.496783    0.000000
     21          1           0       -4.606705    1.282921    0.000000
     22          1           0       -4.637508   -1.200334    0.000000
     23          1           0       -2.493341   -2.437991    0.000000
     24          1           0       -0.000603   -2.145864    0.859720
     25          1           0       -0.000603   -2.145864   -0.859720
 ---------------------------------------------------------------------

 SCF Done:  E(RM062X) =  -539.815802596     A.U. after   14 cycles

 Excitation energies and oscillator strengths:

 Excited State   1:      Singlet-A'     2.8215 eV  439.42 nm  f=0.0275  <S**2>=0.000
      47 -> 48         0.70414
 This state for optimization and/or second-order correction.
 Total Energy, E(TD-HF/TD-DFT) =  -539.712112667
 Copying the excited state density for this state as the 1-particle RhoCI density.

 Excited State   2:      Singlet-A'     3.2645 eV  379.79 nm  f=0.0037  <S**2>=0.000
      45 -> 48         0.61325
      46 -> 48         0.34064

 Excited State   3:      Singlet-A'     3.4851 eV  355.75 nm  f=0.5463  <S**2>=0.000
      45 -> 48        -0.34262
      46 -> 48         0.60883

 The electronic state is 1-A'.
 Alpha  occ. eigenvalues --  -10.77536 -10.73150 -10.73073 -10.72292 -10.72229
 Alpha  occ. eigenvalues --  -10.71270 -10.71198 -10.70986 -10.70844 -10.70840
 Alpha  occ. eigenvalues --  -10.69857 -10.69824 -10.69548 -10.69507  -1.16256
 Alpha  occ. eigenvalues --   -1.12286  -1.06777  -1.05573  -1.01159  -1.00033
 Alpha  occ. eigenvalues --   -0.95634  -0.90878  -0.86213  -0.85731  -0.83650
 Alpha  occ. eigenvalues --   -0.78239  -0.75783  -0.74199  -0.69353  -0.69078
 Alpha  occ. eigenvalues --   -0.68298  -0.68018  -0.67978  -0.64506  -0.64059
 Alpha  occ. eigenvalues --   -0.62813  -0.61659  -0.59954  -0.59658  -0.58898
 Alpha  occ. eigenvalues --   -0.56690  -0.54992  -0.54600  -0.52416  -0.46580
 Alpha  occ. eigenvalues --   -0.45999  -0.44437
 Alpha virt. eigenvalues --   -0.25962  -0.14401  -0.13959  -0.12486  -0.06851
 Alpha virt. eigenvalues --   -0.05510  -0.05362  -0.04073  -0.02675  -0.01623
 Alpha virt. eigenvalues --   -0.00205   0.00380   0.00577   0.01935   0.02305

 Mulliken charges:
               1
     1  C   -0.099989
     2  C   -0.030921
     3  C   -0.120011
     4  C   -0.064622
     5  C   -0.059651
     6  C   -0.120820
     7  C   -0.029506
     8  C   -0.099957
     9  C   -0.308865
    10  C   -0.066981
    11  C    0.102445
    12  C    0.056532
    13  C    0.104241
    14  C    0.054588
    15  H    0.136818
    16  H    0.147964
    17  H    0.142776
    18  H    0.131007
    19  H    0.160010
    20  H    0.131440
    21  H    0.142777
    22  H    0.147861
    23  H    0.137060
    24  H    0.202902
    25  H    0.202902
 Sum of Mulliken charges =   1.00000

 Dipole moment (field-independent basis, Debye):
    X=             -0.0747    Y=              0.1969    Z=              0.0000  Tot=              0.2106
 Quadrupole moment (field-independent basis, Debye-Ang):
   XX=            -30.9517   YY=            -56.4110   ZZ=            -83.3713
   XY=             -0.0906   XZ=              0.0000   YZ=             -0.0000

 Normal termination of Gaussian 16 at Thu Jul 21 12:58:52 2022.
