 Gaussian 16, Revision C.01,
 Gaussian 16:  ES64L-G16RevC.01  3-Jul-2019

 ----------------------------------------------
 #n M062X/cc-pvtz TD EmpiricalDispersion=GD3 SP
 ----------------------------------------------

 -----
 SP_12
 -----
 Symbolic Z-matrix:
 Charge =  1 Multiplicity = 1

                         Standard orientation:
 ---------------------------------------------------------------------
 Center     Atomic      Atomic             Coordinates (Angstroms)
 Number     Number       Type             X           Y           Z
 ---------------------------------------------------------------------
      1          6           0        0.000000    2.492650    1.360429
      2          6           0        0.000000    3.701510    0.671989
      3          6           0        0.000000    3.683860   -0.713831
      4          6           0        0.000000    2.463160   -1.407541
      5          6           0       -0.000000   -2.463160   -1.407541
      6          6           0       -0.000000   -3.683860   -0.713831
      7          6           0       -0.000000   -3.701510    0.671989
      8          6           0       -0.000000   -2.492650    1.360429
      9          6           0       -0.000000   -0.000000    1.453369
     10          6           0        0.000000    0.000000   -1.429191
     11          6           0        0.000000    1.262060    0.677069
     12          6           0        0.000000    1.237470   -0.730801
     13          6           0       -0.000000   -1.262060    0.677069
     14          6           0       -0.000000   -1.237470   -0.730801
     15          1           0        0.000000    2.488070    2.443649
     16          1           0        0.000000    4.636750    1.211689
     17          1           0        0.000000    4.609260   -1.272351
     18          1           0        0.000000    2.467550   -2.490061
     19          1           0        0.000000    0.000000   -2.510261
     20          1           0       -0.000000   -2.467550   -2.490061
     21          1           0       -0.000000   -4.609260   -1.272351
     22          1           0       -0.000000   -4.636750    1.211689
     23          1           0       -0.000000   -2.488070    2.443649
     24          1           0       -0.859590    0.000000    2.145789
     25          1           0        0.859590   -0.000000    2.145789
 ---------------------------------------------------------------------

 SCF Done:  E(RM062X) =  -539.815833893     A.U. after   14 cycles

 Excitation energies and oscillator strengths:

 Excited State   1:      Singlet-A1     2.8226 eV  439.26 nm  f=0.0276  <S**2>=0.000
      47 -> 48         0.70416
 This state for optimization and/or second-order correction.
 Total Energy, E(TD-HF/TD-DFT) =  -539.712106079
 Copying the excited state density for this state as the 1-particle RhoCI density.

 Excited State   2:      Singlet-B2     3.2645 eV  379.80 nm  f=0.0036  <S**2>=0.000
      45 -> 48         0.61329
      46 -> 48        -0.34055

 Excited State   3:      Singlet-B2     3.4853 eV  355.73 nm  f=0.5464  <S**2>=0.000
      45 -> 48         0.34254
      46 -> 48         0.60889

 The electronic state is 1-A1.
 Alpha  occ. eigenvalues --  -10.77534 -10.73109 -10.73108 -10.72260 -10.72259
 Alpha  occ. eigenvalues --  -10.71234 -10.71234 -10.70916 -10.70916 -10.70839
 Alpha  occ. eigenvalues --  -10.69841 -10.69841 -10.69527 -10.69527  -1.16258
 Alpha  occ. eigenvalues --   -1.12288  -1.06777  -1.05578  -1.01159  -1.00035
 Alpha  occ. eigenvalues --   -0.95635  -0.90879  -0.86213  -0.85732  -0.83651
 Alpha  occ. eigenvalues --   -0.78240  -0.75785  -0.74199  -0.69350  -0.69079
 Alpha  occ. eigenvalues --   -0.68300  -0.68017  -0.67979  -0.64502  -0.64061
 Alpha  occ. eigenvalues --   -0.62821  -0.61660  -0.59945  -0.59665  -0.58898
 Alpha  occ. eigenvalues --   -0.56691  -0.54989  -0.54605  -0.52415  -0.46577
 Alpha  occ. eigenvalues --   -0.45998  -0.44440
 Alpha virt. eigenvalues --   -0.25961  -0.14401  -0.13959  -0.12486  -0.06851
 Alpha virt. eigenvalues --   -0.05510  -0.05364  -0.04073  -0.02676  -0.01624
 Alpha virt. eigenvalues --   -0.00206   0.00381   0.00577   0.01936   0.02305

 Mulliken charges:
               1
     1  C   -0.100049
     2  C   -0.030225
     3  C   -0.120396
     4  C   -0.062131
     5  C   -0.062131
     6  C   -0.120396
     7  C   -0.030225
     8  C   -0.100049
     9  C   -0.308875
    10  C   -0.067015
    11  C    0.103527
    12  C    0.055558
    13  C    0.103527
    14  C    0.055558
    15  H    0.136917
    16  H    0.147911
    17  H    0.142767
    18  H    0.131212
    19  H    0.159997
    20  H    0.131212
    21  H    0.142767
    22  H    0.147911
    23  H    0.136917
    24  H    0.202854
    25  H    0.202854
 Sum of Mulliken charges =   1.00000

 Dipole moment (field-independent basis, Debye):
    X=             -0.0000    Y=              0.0000    Z=             -0.1964  Tot=              0.1964
 Quadrupole moment (field-independent basis, Debye-Ang):
   XX=            -83.3715   YY=            -30.9532   ZZ=            -56.4108
   XY=              0.0000   XZ=              0.0000   YZ=              0.0000

 Normal termination of Gaussian 16 at Thu Jul 21 13:03:54 2022.
