 Gaussian 16, Revision C.01,
 Gaussian 16:  ES64L-G16RevC.01  3-Jul-2019

 ----------------------------------------------
 #n M062X/cc-pvtz TD EmpiricalDispersion=GD3 SP
 ----------------------------------------------

 -----
 SP_24
 -----
 Symbolic Z-matrix:
 Charge =  1 Multiplicity = 1

                         Standard orientation:
 ---------------------------------------------------------------------
 Center     Atomic      Atomic             Coordinates (Angstroms)
 Number     Number       Type             X           Y           Z
 ---------------------------------------------------------------------
      1          6           0       -2.360158   -1.544469    0.000000
      2          6           0       -2.305029   -2.938502    0.000000
      3          6           0       -1.073319   -3.590665    0.000000
      4          6           0        0.090655   -2.863609    0.000000
      5          6           0        2.372727    1.501639    0.000000
      6          6           0        2.340547    2.936766    0.000000
      7          6           0        1.140905    3.611766    0.000000
      8          6           0       -0.026073    2.855565    0.000000
      9          6           0       -1.273072    0.688846    0.000000
     10          6           0        1.243981   -0.703272    0.000000
     11          6           0       -1.204500   -0.798517    0.000000
     12          6           0        0.060282   -1.450537    0.000000
     13          6           0        0.000000    1.419519    0.000000
     14          6           0        1.216907    0.738737    0.000000
     15          1           0       -3.322276   -1.046896    0.000000
     16          1           0       -3.221292   -3.511256    0.000000
     17          1           0       -1.036122   -4.670890    0.000000
     18          1           0        1.050918   -3.362619    0.000000
     19          1           0        2.200619   -1.207014    0.000000
     20          1           0        3.338189    1.010315    0.000000
     21          1           0        3.279382    3.473937    0.000000
     22          1           0        1.102766    4.690053    0.000000
     23          1           0       -0.992731    3.345558    0.000000
     24          1           0       -1.871287    1.049601    0.858026
     25          1           0       -1.871287    1.049601   -0.858026
 ---------------------------------------------------------------------

 SCF Done:  E(RM062X) =  -539.811273454     A.U. after   14 cycles

 Excitation energies and oscillator strengths:

 Excited State   1:      Singlet-A'     2.7074 eV  457.94 nm  f=0.0210  <S**2>=0.000
      47 -> 48         0.70340
 This state for optimization and/or second-order correction.
 Total Energy, E(TD-HF/TD-DFT) =  -539.711777999
 Copying the excited state density for this state as the 1-particle RhoCI density.

 Excited State   2:      Singlet-A'     3.3864 eV  366.13 nm  f=0.0374  <S**2>=0.000
      45 -> 48         0.62080
      46 -> 48         0.32427

 Excited State   3:      Singlet-A'     3.4991 eV  354.33 nm  f=0.5156  <S**2>=0.000
      45 -> 48        -0.32772
      46 -> 48         0.61688

 The electronic state is 1-A'.
 Alpha  occ. eigenvalues --  -10.77453 -10.73519 -10.72605 -10.72593 -10.71839
 Alpha  occ. eigenvalues --  -10.71798 -10.71636 -10.70827 -10.70781 -10.70108
 Alpha  occ. eigenvalues --  -10.70038 -10.69758 -10.69647 -10.69266  -1.16362
 Alpha  occ. eigenvalues --   -1.12315  -1.06766  -1.05726  -1.01136  -1.00245
 Alpha  occ. eigenvalues --   -0.95475  -0.90879  -0.86229  -0.85737  -0.83634
 Alpha  occ. eigenvalues --   -0.78199  -0.75902  -0.74162  -0.69520  -0.69118
 Alpha  occ. eigenvalues --   -0.68175  -0.67993  -0.67894  -0.64915  -0.64022
 Alpha  occ. eigenvalues --   -0.62620  -0.61486  -0.60293  -0.59306  -0.58953
 Alpha  occ. eigenvalues --   -0.56728  -0.55055  -0.54387  -0.52409  -0.47094
 Alpha  occ. eigenvalues --   -0.46049  -0.43899
 Alpha virt. eigenvalues --   -0.25957  -0.14404  -0.13941  -0.12471  -0.06805
 Alpha virt. eigenvalues --   -0.05534  -0.05393  -0.04111  -0.02633  -0.01634
 Alpha virt. eigenvalues --   -0.00223   0.00340   0.00602   0.01884   0.02385

 Mulliken charges:
               1
     1  C   -0.100802
     2  C   -0.021944
     3  C   -0.125036
     4  C   -0.032240
     5  C   -0.091764
     6  C   -0.115267
     7  C   -0.039124
     8  C   -0.100863
     9  C   -0.309666
    10  C   -0.067841
    11  C    0.116559
    12  C    0.043840
    13  C    0.095267
    14  C    0.067053
    15  H    0.138272
    16  H    0.147489
    17  H    0.142652
    18  H    0.133711
    19  H    0.159576
    20  H    0.128493
    21  H    0.142594
    22  H    0.148721
    23  H    0.135390
    24  H    0.202465
    25  H    0.202465
 Sum of Mulliken charges =   1.00000

 Dipole moment (field-independent basis, Debye):
    X=             -0.2624    Y=             -0.8774    Z=              0.0000  Tot=              0.9158
 Quadrupole moment (field-independent basis, Debye-Ang):
   XX=            -51.1467   YY=            -36.1599   ZZ=            -83.3633
   XY=             10.3415   XZ=             -0.0000   YZ=             -0.0000

 Normal termination of Gaussian 16 at Thu Jul 21 15:39:51 2022.
