 Gaussian 16, Revision C.01,
 Gaussian 16:  ES64L-G16RevC.01  3-Jul-2019

 ----------------------------------------------
 #n M062X/cc-pvtz TD EmpiricalDispersion=GD3 SP
 ----------------------------------------------

 -----
 SP_17
 -----
 Symbolic Z-matrix:
 Charge =  1 Multiplicity = 1

                         Standard orientation:
 ---------------------------------------------------------------------
 Center     Atomic      Atomic             Coordinates (Angstroms)
 Number     Number       Type             X           Y           Z
 ---------------------------------------------------------------------
      1          6           0       -2.370096   -1.549660    0.000000
      2          6           0       -2.326629   -2.941772    0.000000
      3          6           0       -1.096219   -3.586613    0.000000
      4          6           0        0.081968   -2.847481    0.000000
      5          6           0        2.391424    1.503682    0.000000
      6          6           0        2.358111    2.920428    0.000000
      7          6           0        1.150787    3.592910    0.000000
      8          6           0       -0.022724    2.846284    0.000000
      9          6           0       -1.277512    0.687814    0.000000
     10          6           0        1.252930   -0.687148    0.000000
     11          6           0       -1.197959   -0.794712    0.000000
     12          6           0        0.059484   -1.442020    0.000000
     13          6           0        0.000000    1.426916    0.000000
     14          6           0        1.223952    0.742375    0.000000
     15          1           0       -3.326541   -1.041245    0.000000
     16          1           0       -3.243746   -3.512321    0.000000
     17          1           0       -1.048832   -4.666390    0.000000
     18          1           0        1.037330   -3.356202    0.000000
     19          1           0        2.207235   -1.195179    0.000000
     20          1           0        3.351373    1.002675    0.000000
     21          1           0        3.291571    3.465890    0.000000
     22          1           0        1.115393    4.671775    0.000000
     23          1           0       -0.983586    3.346832    0.000000
     24          1           0       -1.882647    1.029067    0.858939
     25          1           0       -1.882647    1.029067   -0.858939
 ---------------------------------------------------------------------

 SCF Done:  E(RM062X) =  -539.815029808     A.U. after   14 cycles

 Excitation energies and oscillator strengths:

 Excited State   1:      Singlet-A'     2.7983 eV  443.07 nm  f=0.0258  <S**2>=0.000
      47 -> 48         0.70389
 This state for optimization and/or second-order correction.
 Total Energy, E(TD-HF/TD-DFT) =  -539.712193332
 Copying the excited state density for this state as the 1-particle RhoCI density.

 Excited State   2:      Singlet-A'     3.2932 eV  376.49 nm  f=0.0072  <S**2>=0.000
      45 -> 48         0.62913
      46 -> 48         0.30996

 Excited State   3:      Singlet-A'     3.4881 eV  355.45 nm  f=0.5441  <S**2>=0.000
      45 -> 48        -0.31230
      46 -> 48         0.62471

 The electronic state is 1-A'.
 Alpha  occ. eigenvalues --  -10.77516 -10.73283 -10.72899 -10.72407 -10.72091
 Alpha  occ. eigenvalues --  -10.71408 -10.71278 -10.71050 -10.70832 -10.70571
 Alpha  occ. eigenvalues --  -10.69924 -10.69759 -10.69625 -10.69419  -1.16285
 Alpha  occ. eigenvalues --   -1.12298  -1.06775  -1.05618  -1.01154  -1.00084
 Alpha  occ. eigenvalues --   -0.95604  -0.90883  -0.86216  -0.85737  -0.83649
 Alpha  occ. eigenvalues --   -0.78235  -0.75814  -0.74193  -0.69381  -0.69087
 Alpha  occ. eigenvalues --   -0.68278  -0.68009  -0.67965  -0.64592  -0.64049
 Alpha  occ. eigenvalues --   -0.62792  -0.61630  -0.60039  -0.59562  -0.58907
 Alpha  occ. eigenvalues --   -0.56702  -0.55004  -0.54568  -0.52413  -0.46684
 Alpha  occ. eigenvalues --   -0.46014  -0.44322
 Alpha virt. eigenvalues --   -0.25956  -0.14402  -0.13956  -0.12483  -0.06843
 Alpha virt. eigenvalues --   -0.05515  -0.05374  -0.04079  -0.02668  -0.01626
 Alpha virt. eigenvalues --   -0.00214   0.00374   0.00583   0.01926   0.02323

 Mulliken charges:
               1
     1  C   -0.100319
     2  C   -0.026782
     3  C   -0.122352
     4  C   -0.049645
     5  C   -0.074440
     6  C   -0.118281
     7  C   -0.033928
     8  C   -0.100400
     9  C   -0.309078
    10  C   -0.067575
    11  C    0.109017
    12  C    0.050822
    13  C    0.100128
    14  C    0.060430
    15  H    0.137435
    16  H    0.147677
    17  H    0.142699
    18  H    0.132248
    19  H    0.159846
    20  H    0.130077
    21  H    0.142691
    22  H    0.148188
    23  H    0.136240
    24  H    0.202651
    25  H    0.202651
 Sum of Mulliken charges =   1.00000

 Dipole moment (field-independent basis, Debye):
    X=             -0.0073    Y=             -0.4217    Z=              0.0000  Tot=              0.4218
 Quadrupole moment (field-independent basis, Debye-Ang):
   XX=            -50.9009   YY=            -36.4556   ZZ=            -83.3702
   XY=             10.4874   XZ=              0.0000   YZ=             -0.0000

 Normal termination of Gaussian 16 at Thu Jul 21 13:49:50 2022.
