 Gaussian 16, Revision C.01,
 Gaussian 16:  ES64L-G16RevC.01  3-Jul-2019

 ----------------------------------------------
 #n M062X/cc-pvtz TD EmpiricalDispersion=GD3 SP
 ----------------------------------------------

 -----
 SP_23
 -----
 Symbolic Z-matrix:
 Charge =  1 Multiplicity = 1

                         Standard orientation:
 ---------------------------------------------------------------------
 Center     Atomic      Atomic             Coordinates (Angstroms)
 Number     Number       Type             X           Y           Z
 ---------------------------------------------------------------------
      1          6           0       -2.361577   -1.545208    0.000000
      2          6           0       -2.308117   -2.938971    0.000000
      3          6           0       -1.076598   -3.590090    0.000000
      4          6           0        0.089402   -2.861307    0.000000
      5          6           0        2.375399    1.501933    0.000000
      6          6           0        2.343066    2.934432    0.000000
      7          6           0        1.142330    3.609071    0.000000
      8          6           0       -0.025586    2.854239    0.000000
      9          6           0       -1.273704    0.688699    0.000000
     10          6           0        1.245251   -0.700967    0.000000
     11          6           0       -1.203568   -0.797968    0.000000
     12          6           0        0.060162   -1.449320    0.000000
     13          6           0        0.000000    1.420575    0.000000
     14          6           0        1.217913    0.739257    0.000000
     15          1           0       -3.322888   -1.046083    0.000000
     16          1           0       -3.224504   -3.511409    0.000000
     17          1           0       -1.037948   -4.670247    0.000000
     18          1           0        1.048968   -3.361707    0.000000
     19          1           0        2.201556   -1.205324    0.000000
     20          1           0        3.340075    1.009221    0.000000
     21          1           0        3.281131    3.472784    0.000000
     22          1           0        1.104585    4.687442    0.000000
     23          1           0       -0.991418    3.345744    0.000000
     24          1           0       -1.872899    1.046666    0.858157
     25          1           0       -1.872899    1.046666   -0.858157
 ---------------------------------------------------------------------

 SCF Done:  E(RM062X) =  -539.812001874     A.U. after   14 cycles

 Excitation energies and oscillator strengths:

 Excited State   1:      Singlet-A'     2.7229 eV  455.35 nm  f=0.0217  <S**2>=0.000
      47 -> 48         0.70345
 This state for optimization and/or second-order correction.
 Total Energy, E(TD-HF/TD-DFT) =  -539.711938793
 Copying the excited state density for this state as the 1-particle RhoCI density.

 Excited State   2:      Singlet-A'     3.3713 eV  367.77 nm  f=0.0282  <S**2>=0.000
      45 -> 48         0.62901
      46 -> 48         0.30861

 Excited State   3:      Singlet-A'     3.4966 eV  354.58 nm  f=0.5248  <S**2>=0.000
      45 -> 48        -0.31184
      46 -> 48         0.62492

 The electronic state is 1-A'.
 Alpha  occ. eigenvalues --  -10.77464 -10.73486 -10.72647 -10.72568 -10.71876
 Alpha  occ. eigenvalues --  -10.71723 -10.71604 -10.70828 -10.70820 -10.70173
 Alpha  occ. eigenvalues --  -10.70022 -10.69740 -10.69663 -10.69288  -1.16348
 Alpha  occ. eigenvalues --   -1.12312  -1.06768  -1.05707  -1.01140  -1.00216
 Alpha  occ. eigenvalues --   -0.95498  -0.90880  -0.86226  -0.85738  -0.83637
 Alpha  occ. eigenvalues --   -0.78206  -0.75887  -0.74167  -0.69495  -0.69112
 Alpha  occ. eigenvalues --   -0.68194  -0.67996  -0.67907  -0.64861  -0.64025
 Alpha  occ. eigenvalues --   -0.62649  -0.61513  -0.60255  -0.59344  -0.58945
 Alpha  occ. eigenvalues --   -0.56724  -0.55048  -0.54419  -0.52410  -0.47022
 Alpha  occ. eigenvalues --   -0.46045  -0.43970
 Alpha virt. eigenvalues --   -0.25956  -0.14403  -0.13944  -0.12473  -0.06813
 Alpha virt. eigenvalues --   -0.05531  -0.05390  -0.04105  -0.02640  -0.01633
 Alpha virt. eigenvalues --   -0.00222   0.00346   0.00599   0.01892   0.02374

 Mulliken charges:
               1
     1  C   -0.100727
     2  C   -0.022636
     3  C   -0.124655
     4  C   -0.034717
     5  C   -0.089293
     6  C   -0.115700
     7  C   -0.038373
     8  C   -0.100808
     9  C   -0.309557
    10  C   -0.067798
    11  C    0.115486
    12  C    0.044839
    13  C    0.095953
    14  C    0.066115
    15  H    0.138145
    16  H    0.147507
    17  H    0.142657
    18  H    0.133502
    19  H    0.159623
    20  H    0.128719
    21  H    0.142609
    22  H    0.148637
    23  H    0.135505
    24  H    0.202484
    25  H    0.202484
 Sum of Mulliken charges =   1.00000

 Dipole moment (field-independent basis, Debye):
    X=             -0.2259    Y=             -0.8127    Z=              0.0000  Tot=              0.8435
 Quadrupole moment (field-independent basis, Debye-Ang):
   XX=            -51.1120   YY=            -36.2046   ZZ=            -83.3647
   XY=             10.3610   XZ=             -0.0000   YZ=             -0.0000

 Normal termination of Gaussian 16 at Thu Jul 21 15:31:02 2022.
