 Gaussian 16, Revision C.01,
 Gaussian 16:  ES64L-G16RevC.01  3-Jul-2019

 ----------------------------------------------
 #n M062X/cc-pvtz TD EmpiricalDispersion=GD3 SP
 ----------------------------------------------

 -----
 SP_16
 -----
 Symbolic Z-matrix:
 Charge =  1 Multiplicity = 1

                         Standard orientation:
 ---------------------------------------------------------------------
 Center     Atomic      Atomic             Coordinates (Angstroms)
 Number     Number       Type             X           Y           Z
 ---------------------------------------------------------------------
      1          6           0       -2.371516   -1.550404    0.000000
      2          6           0       -2.329711   -2.942236    0.000000
      3          6           0       -1.099480   -3.586028    0.000000
      4          6           0        0.080742   -2.845174    0.000000
      5          6           0        2.394094    1.503972    0.000000
      6          6           0        2.360606    2.918093    0.000000
      7          6           0        1.152181    3.590217    0.000000
      8          6           0       -0.022258    2.844958    0.000000
      9          6           0       -1.278150    0.687666    0.000000
     10          6           0        1.254219   -0.684846    0.000000
     11          6           0       -1.197022   -0.794175    0.000000
     12          6           0        0.059378   -1.440804    0.000000
     13          6           0        0.000000    1.427974    0.000000
     14          6           0        1.224959    0.742895    0.000000
     15          1           0       -3.327147   -1.040445    0.000000
     16          1           0       -3.246948   -3.512473    0.000000
     17          1           0       -1.050634   -4.665747    0.000000
     18          1           0        1.035402   -3.355278    0.000000
     19          1           0        2.208191   -1.193486    0.000000
     20          1           0        3.353253    1.001586    0.000000
     21          1           0        3.293302    3.464745    0.000000
     22          1           0        1.117176    4.669164    0.000000
     23          1           0       -0.982288    3.347010    0.000000
     24          1           0       -1.884284    1.026135    0.859069
     25          1           0       -1.884284    1.026135   -0.859069
 ---------------------------------------------------------------------

 SCF Done:  E(RM062X) =  -539.815312379     A.U. after   14 cycles

 Excitation energies and oscillator strengths:

 Excited State   1:      Singlet-A'     2.8067 eV  441.74 nm  f=0.0264  <S**2>=0.000
      47 -> 48         0.70397
 This state for optimization and/or second-order correction.
 Total Energy, E(TD-HF/TD-DFT) =  -539.712167184
 Copying the excited state density for this state as the 1-particle RhoCI density.

 Excited State   2:      Singlet-A'     3.2840 eV  377.54 nm  f=0.0059  <S**2>=0.000
      45 -> 48         0.62519
      46 -> 48         0.31796

 Excited State   3:      Singlet-A'     3.4873 eV  355.53 nm  f=0.5450  <S**2>=0.000
      45 -> 48        -0.32018
      46 -> 48         0.62077

 The electronic state is 1-A'.
 Alpha  occ. eigenvalues --  -10.77522 -10.73249 -10.72941 -10.72378 -10.72126
 Alpha  occ. eigenvalues --  -10.71374 -10.71205 -10.71088 -10.70833 -10.70639
 Alpha  occ. eigenvalues --  -10.69907 -10.69776 -10.69605 -10.69441  -1.16277
 Alpha  occ. eigenvalues --   -1.12296  -1.06775  -1.05607  -1.01155  -1.00070
 Alpha  occ. eigenvalues --   -0.95614  -0.90883  -0.86215  -0.85736  -0.83650
 Alpha  occ. eigenvalues --   -0.78237  -0.75806  -0.74195  -0.69370  -0.69084
 Alpha  occ. eigenvalues --   -0.68287  -0.68011  -0.67971  -0.64561  -0.64053
 Alpha  occ. eigenvalues --   -0.62806  -0.61641  -0.60008  -0.59594  -0.58903
 Alpha  occ. eigenvalues --   -0.56699  -0.54998  -0.54583  -0.52413  -0.46647
 Alpha  occ. eigenvalues --   -0.46009  -0.44361
 Alpha virt. eigenvalues --   -0.25957  -0.14402  -0.13957  -0.12483  -0.06846
 Alpha virt. eigenvalues --   -0.05513  -0.05372  -0.04077  -0.02671  -0.01625
 Alpha virt. eigenvalues --   -0.00213   0.00377   0.00581   0.01930   0.02317

 Mulliken charges:
               1
     1  C   -0.100256
     2  C   -0.027474
     3  C   -0.121966
     4  C   -0.052140
     5  C   -0.071963
     6  C   -0.118708
     7  C   -0.033196
     8  C   -0.100322
     9  C   -0.309026
    10  C   -0.067545
    11  C    0.107934
    12  C    0.051816
    13  C    0.100833
    14  C    0.059475
    15  H    0.137324
    16  H    0.147715
    17  H    0.142707
    18  H    0.132040
    19  H    0.159872
    20  H    0.130304
    21  H    0.142704
    22  H    0.148123
    23  H    0.136371
    24  H    0.202687
    25  H    0.202687
 Sum of Mulliken charges =   1.00000

 Dipole moment (field-independent basis, Debye):
    X=              0.0289    Y=             -0.3561    Z=             -0.0000  Tot=              0.3573
 Quadrupole moment (field-independent basis, Debye-Ang):
   XX=            -50.8653   YY=            -36.4946   ZZ=            -83.3707
   XY=             10.5101   XZ=              0.0000   YZ=             -0.0000

 Normal termination of Gaussian 16 at Thu Jul 21 13:40:36 2022.
