 Gaussian 16, Revision C.01,
 Gaussian 16:  ES64L-G16RevC.01  3-Jul-2019

 ----------------------------------------------
 #n M062X/cc-pvtz TD EmpiricalDispersion=GD3 SP
 ----------------------------------------------

 -----
 SP_14
 -----
 Symbolic Z-matrix:
 Charge =  1 Multiplicity = 1

                         Standard orientation:
 ---------------------------------------------------------------------
 Center     Atomic      Atomic             Coordinates (Angstroms)
 Number     Number       Type             X           Y           Z
 ---------------------------------------------------------------------
      1          6           0        2.494997   -1.349419    0.000000
      2          6           0        3.700225   -0.653331    0.000000
      3          6           0        3.679138    0.733722    0.000000
      4          6           0        2.460847    1.420965    0.000000
      5          6           0       -2.465297    1.394008    0.000000
      6          6           0       -3.688215    0.693621    0.000000
      7          6           0       -3.702424   -0.690652    0.000000
      8          6           0       -2.489502   -1.371696    0.000000
      9          6           0        0.004500   -1.452374    0.000000
     10          6           0        0.000000    1.429088    0.000000
     11          6           0        1.266382   -0.673548    0.000000
     12          6           0        1.236805    0.736701    0.000000
     13          6           0       -1.257687   -0.680721    0.000000
     14          6           0       -1.238288    0.724945    0.000000
     15          1           0        2.497906   -2.432620    0.000000
     16          1           0        4.637886   -1.189067    0.000000
     17          1           0        4.603953    1.293139    0.000000
     18          1           0        2.458140    2.503421    0.000000
     19          1           0       -0.005380    2.510159    0.000000
     20          1           0       -2.476860    2.476591    0.000000
     21          1           0       -4.614297    1.251194    0.000000
     22          1           0       -4.635151   -1.234409    0.000000
     23          1           0       -2.477488   -2.454932    0.000000
     24          1           0        0.001206   -2.145663    0.859329
     25          1           0        0.001206   -2.145663   -0.859329
 ---------------------------------------------------------------------

 SCF Done:  E(RM062X) =  -539.815707919     A.U. after   14 cycles

 Excitation energies and oscillator strengths:

 Excited State   1:      Singlet-A'     2.8185 eV  439.89 nm  f=0.0273  <S**2>=0.000
      47 -> 48         0.70410
 This state for optimization and/or second-order correction.
 Total Energy, E(TD-HF/TD-DFT) =  -539.712130047
 Copying the excited state density for this state as the 1-particle RhoCI density.

 Excited State   2:      Singlet-A'     3.2705 eV  379.10 nm  f=0.0042  <S**2>=0.000
      45 -> 48         0.61753
      46 -> 48         0.33275

 Excited State   3:      Singlet-A'     3.4861 eV  355.66 nm  f=0.5461  <S**2>=0.000
      45 -> 48        -0.33482
      46 -> 48         0.61311

 The electronic state is 1-A'.
 Alpha  occ. eigenvalues --  -10.77530 -10.73179 -10.73025 -10.72320 -10.72193
 Alpha  occ. eigenvalues --  -10.71305 -10.71161 -10.71059 -10.70837 -10.70777
 Alpha  occ. eigenvalues --  -10.69874 -10.69808 -10.69566 -10.69484  -1.16266
 Alpha  occ. eigenvalues --   -1.12291  -1.06776  -1.05590  -1.01157  -1.00048
 Alpha  occ. eigenvalues --   -0.95629  -0.90881  -0.86213  -0.85734  -0.83651
 Alpha  occ. eigenvalues --   -0.78240  -0.75793  -0.74198  -0.69354  -0.69081
 Alpha  occ. eigenvalues --   -0.68297  -0.68014  -0.67978  -0.64518  -0.64060
 Alpha  occ. eigenvalues --   -0.62822  -0.61656  -0.59960  -0.59646  -0.58899
 Alpha  occ. eigenvalues --   -0.56695  -0.54990  -0.54602  -0.52414  -0.46597
 Alpha  occ. eigenvalues --   -0.46001  -0.44418
 Alpha virt. eigenvalues --   -0.25958  -0.14401  -0.13959  -0.12485  -0.06850
 Alpha virt. eigenvalues --   -0.05511  -0.05368  -0.04073  -0.02675  -0.01624
 Alpha virt. eigenvalues --   -0.00210   0.00381   0.00578   0.01935   0.02309

 Mulliken charges:
               1
     1  C   -0.100170
     2  C   -0.028837
     3  C   -0.121165
     4  C   -0.057142
     5  C   -0.067089
     6  C   -0.119548
     7  C   -0.031668
     8  C   -0.100227
     9  C   -0.308915
    10  C   -0.067094
    11  C    0.105686
    12  C    0.053609
    13  C    0.102101
    14  C    0.057498
    15  H    0.137121
    16  H    0.147814
    17  H    0.142748
    18  H    0.131623
    19  H    0.159962
    20  H    0.130757
    21  H    0.142745
    22  H    0.148021
    23  H    0.136638
    24  H    0.202766
    25  H    0.202766
 Sum of Mulliken charges =   1.00000

 Dipole moment (field-independent basis, Debye):
    X=              0.1494    Y=              0.1958    Z=              0.0000  Tot=              0.2463
 Quadrupole moment (field-independent basis, Debye-Ang):
   XX=            -30.9546   YY=            -56.4092   ZZ=            -83.3714
   XY=              0.1812   XZ=             -0.0000   YZ=             -0.0000

 Normal termination of Gaussian 16 at Thu Jul 21 13:21:24 2022.
