 Gaussian 16, Revision C.01,
 Gaussian 16:  ES64L-G16RevC.01  3-Jul-2019

 ----------------------------------------------
 #n M062X/cc-pvtz TD EmpiricalDispersion=GD3 SP
 ----------------------------------------------

 -----
 SP_18
 -----
 Symbolic Z-matrix:
 Charge =  1 Multiplicity = 1

                         Standard orientation:
 ---------------------------------------------------------------------
 Center     Atomic      Atomic             Coordinates (Angstroms)
 Number     Number       Type             X           Y           Z
 ---------------------------------------------------------------------
      1          6           0       -2.368676   -1.548917    0.000000
      2          6           0       -2.323546   -2.941306    0.000000
      3          6           0       -1.092956   -3.587196    0.000000
      4          6           0        0.083198   -2.849787    0.000000
      5          6           0        2.388754    1.503392    0.000000
      6          6           0        2.355612    2.922762    0.000000
      7          6           0        1.149389    3.595603    0.000000
      8          6           0       -0.023194    2.847609    0.000000
      9          6           0       -1.276875    0.687962    0.000000
     10          6           0        1.251644   -0.689450    0.000000
     11          6           0       -1.198896   -0.795250    0.000000
     12          6           0        0.059592   -1.443236    0.000000
     13          6           0       -0.000000    1.425859    0.000000
     14          6           0        1.222945    0.741855    0.000000
     15          1           0       -3.325934   -1.042047    0.000000
     16          1           0       -3.240543   -3.512169    0.000000
     17          1           0       -1.047026   -4.667033    0.000000
     18          1           0        1.039262   -3.357124    0.000000
     19          1           0        2.206282   -1.196870    0.000000
     20          1           0        3.349493    1.003764    0.000000
     21          1           0        3.289837    3.467036    0.000000
     22          1           0        1.113604    4.674386    0.000000
     23          1           0       -0.984886    3.346654    0.000000
     24          1           0       -1.881014    1.031999    0.858808
     25          1           0       -1.881014    1.031999   -0.858808
 ---------------------------------------------------------------------

 SCF Done:  E(RM062X) =  -539.814684057     A.U. after   14 cycles

 Excitation energies and oscillator strengths:

 Excited State   1:      Singlet-A'     2.7885 eV  444.63 nm  f=0.0252  <S**2>=0.000
      47 -> 48         0.70380
 This state for optimization and/or second-order correction.
 Total Energy, E(TD-HF/TD-DFT) =  -539.712210003
 Copying the excited state density for this state as the 1-particle RhoCI density.

 Excited State   2:      Singlet-A'     3.3038 eV  375.28 nm  f=0.0089  <S**2>=0.000
      45 -> 48         0.63254
      46 -> 48         0.30279

 Excited State   3:      Singlet-A'     3.4890 eV  355.35 nm  f=0.5428  <S**2>=0.000
      45 -> 48        -0.30525
      46 -> 48         0.62813

 The electronic state is 1-A'.
 Alpha  occ. eigenvalues --  -10.77510 -10.73318 -10.72857 -10.72435 -10.72056
 Alpha  occ. eigenvalues --  -10.71442 -10.71351 -10.71012 -10.70832 -10.70504
 Alpha  occ. eigenvalues --  -10.69941 -10.69743 -10.69644 -10.69397  -1.16293
 Alpha  occ. eigenvalues --   -1.12300  -1.06774  -1.05630  -1.01152  -1.00101
 Alpha  occ. eigenvalues --   -0.95591  -0.90883  -0.86217  -0.85737  -0.83648
 Alpha  occ. eigenvalues --   -0.78232  -0.75824  -0.74189  -0.69396  -0.69089
 Alpha  occ. eigenvalues --   -0.68268  -0.68007  -0.67959  -0.64628  -0.64045
 Alpha  occ. eigenvalues --   -0.62774  -0.61616  -0.60072  -0.59528  -0.58911
 Alpha  occ. eigenvalues --   -0.56705  -0.55011  -0.54549  -0.52412  -0.46727
 Alpha  occ. eigenvalues --   -0.46019  -0.44275
 Alpha virt. eigenvalues --   -0.25956  -0.14402  -0.13955  -0.12481  -0.06840
 Alpha virt. eigenvalues --   -0.05516  -0.05376  -0.04082  -0.02665  -0.01627
 Alpha virt. eigenvalues --   -0.00216   0.00371   0.00585   0.01922   0.02329

 Mulliken charges:
               1
     1  C   -0.100384
     2  C   -0.026090
     3  C   -0.122738
     4  C   -0.047151
     5  C   -0.076917
     6  C   -0.117853
     7  C   -0.034662
     8  C   -0.100476
     9  C   -0.309138
    10  C   -0.067608
    11  C    0.110098
    12  C    0.049828
    13  C    0.099426
    14  C    0.061384
    15  H    0.137547
    16  H    0.147641
    17  H    0.142691
    18  H    0.132456
    19  H    0.159816
    20  H    0.129850
    21  H    0.142678
    22  H    0.148256
    23  H    0.136112
    24  H    0.202618
    25  H    0.202618
 Sum of Mulliken charges =   1.00000

 Dipole moment (field-independent basis, Debye):
    X=             -0.0436    Y=             -0.4872    Z=             -0.0000  Tot=              0.4891
 Quadrupole moment (field-independent basis, Debye-Ang):
   XX=            -50.9364   YY=            -36.4157   ZZ=            -83.3696
   XY=             10.4652   XZ=              0.0000   YZ=             -0.0000

 Normal termination of Gaussian 16 at Thu Jul 21 14:00:55 2022.
