 Gaussian 16, Revision C.01,
 Gaussian 16:  ES64L-G16RevC.01  3-Jul-2019

 ----------------------------------------------------------------------
 #n wB97XD/6-311++G(d,p) TD Opt=(CalcAll) IOp(2/15=4,2/16=2) Geom=AllCh
 eck
 ----------------------------------------------------------------------

 Structure from the checkpoint file:  "check_ex2.chk"
 -----
 Title
 -----
 Charge =  1 Multiplicity = 1

 SCF Done:  E(RwB97XD) =  -539.801500983     A.U. after   16 cycles
 Total Energy, E(TD-HF/TD-DFT) =  -539.699036838
 SCF Done:  E(RwB97XD) =  -539.802951327     A.U. after   13 cycles
 Total Energy, E(TD-HF/TD-DFT) =  -539.699218359
 SCF Done:  E(RwB97XD) =  -539.803200900     A.U. after   11 cycles
 Total Energy, E(TD-HF/TD-DFT) =  -539.699227665
 SCF Done:  E(RwB97XD) =  -539.803323872     A.U. after   10 cycles

 Excitation energies and oscillator strengths:

 Excited State   1:      Singlet-A'     2.8326 eV  437.71 nm  f=0.0292  <S**2>=0.000
      47 -> 48         0.70222
 This state for optimization and/or second-order correction.
 Total Energy, E(TD-HF/TD-DFT) =  -539.699229533
 Copying the excited state density for this state as the 1-particle RhoCI density.

 Excited State   2:      Singlet-A'     3.2822 eV  377.75 nm  f=0.0097  <S**2>=0.000
      45 -> 48         0.62973
      46 -> 48         0.30255

 Excited State   3:      Singlet-A'     3.4934 eV  354.91 nm  f=0.5580  <S**2>=0.000
      45 -> 48        -0.30595
      46 -> 48         0.62495

 Optimization completed.
    -- Stationary point found.

                         Standard orientation:
 ---------------------------------------------------------------------
 Center     Atomic      Atomic             Coordinates (Angstroms)
 Number     Number       Type             X           Y           Z
 ---------------------------------------------------------------------
      1          6           0        2.503580    1.338701    0.000000
      2          6           0        3.703590    0.631944    0.000000
      3          6           0        3.679372   -0.758901    0.000000
      4          6           0        2.462046   -1.438438    0.000000
      5          6           0       -2.469460   -1.381859    0.000000
      6          6           0       -3.697520   -0.674727    0.000000
      7          6           0       -3.710626    0.710541    0.000000
      8          6           0       -2.493366    1.385511    0.000000
      9          6           0        0.009022    1.459352    0.000000
     10          6           0        0.000000   -1.429613    0.000000
     11          6           0        1.273144    0.670767    0.000000
     12          6           0        1.239910   -0.741545    0.000000
     13          6           0       -1.255291    0.686753    0.000000
     14          6           0       -1.241189   -0.717914    0.000000
     15          1           0        2.519270    2.423810    0.000000
     16          1           0        4.646555    1.163828    0.000000
     17          1           0        4.605725   -1.320297    0.000000
     18          1           0        2.452182   -2.522949    0.000000
     19          1           0       -0.011172   -2.512278    0.000000
     20          1           0       -2.490095   -2.466474    0.000000
     21          1           0       -4.625658   -1.233659    0.000000
     22          1           0       -4.643603    1.258360    0.000000
     23          1           0       -2.477613    2.470736    0.000000
     24          1           0        0.002564    2.147747   -0.863975
     25          1           0        0.002564    2.147747    0.863975
 ---------------------------------------------------------------------

 The electronic state is 1-A'.
 Alpha  occ. eigenvalues --  -10.52257 -10.47983 -10.47686 -10.47141 -10.46882
 Alpha  occ. eigenvalues --  -10.46023 -10.45777 -10.45746 -10.45633 -10.45239
 Alpha  occ. eigenvalues --  -10.44540 -10.44421 -10.44241 -10.44086  -1.16021
 Alpha  occ. eigenvalues --   -1.12205  -1.06955  -1.05816  -1.01621  -1.00540
 Alpha  occ. eigenvalues --   -0.96321  -0.91886  -0.87524  -0.87034  -0.84959
 Alpha  occ. eigenvalues --   -0.79773  -0.77596  -0.76005  -0.71345  -0.70988
 Alpha  occ. eigenvalues --   -0.70298  -0.70100  -0.69935  -0.66710  -0.66198
 Alpha  occ. eigenvalues --   -0.65063  -0.63859  -0.62158  -0.61628  -0.61239
 Alpha  occ. eigenvalues --   -0.59132  -0.57575  -0.57213  -0.54630  -0.49003
 Alpha  occ. eigenvalues --   -0.48215  -0.46747
 Alpha virt. eigenvalues --   -0.22630  -0.11023  -0.10582  -0.09283  -0.06566
 Alpha virt. eigenvalues --   -0.05594  -0.04903  -0.04067  -0.03570  -0.03244
 Alpha virt. eigenvalues --   -0.02652  -0.02555  -0.01464  -0.01418  -0.00523

 Mulliken charges:
               1
     1  C    0.165797
     2  C   -0.370883
     3  C   -0.440223
     4  C    0.029940
     5  C    0.025409
     6  C   -0.438811
     7  C   -0.378056
     8  C    0.177629
     9  C   -0.438358
    10  C   -0.086678
    11  C   -0.565970
    12  C    0.545561
    13  C   -0.547450
    14  C    0.528332
    15  H    0.249739
    16  H    0.274383
    17  H    0.266267
    18  H    0.236697
    19  H    0.217038
    20  H    0.235014
    21  H    0.264581
    22  H    0.271559
    23  H    0.248045
    24  H    0.265219
    25  H    0.265219
 Sum of Mulliken charges =   1.00000

 Dipole moment (field-independent basis, Debye):
    X=              0.2994    Y=             -0.2242    Z=             -0.0000  Tot=              0.3740
 Quadrupole moment (field-independent basis, Debye-Ang):
   XX=            -30.8207   YY=            -55.7047   ZZ=            -83.3801
   XY=             -0.3979   XZ=             -0.0000   YZ=             -0.0000

  Exact polarizability:     299.331     266.231     644.971       0.000       0.000      75.789
 Approx polarizability:     276.176      -0.393     197.966       0.000       0.000      96.002

                      1                      2                      3
                     A"                     A"                     A"
 Frequencies --     53.0452               105.8483               185.9734
 Red. masses --      3.6904                 3.6253                 2.0818
 Frc consts  --      0.0061                 0.0239                 0.0424
 IR Inten    --      0.0761                 0.0144                 9.2588

                      4                      5                      6
                     A"                     A'                     A"
 Frequencies --    222.5239               234.1738               275.3655
 Red. masses --      4.4742                 4.4515                 2.8728
 Frc consts  --      0.1305                 0.1438                 0.1283
 IR Inten    --      0.9130               354.5481                 3.0969

                      7                      8                      9
                     A'                     A"                     A'
 Frequencies --    275.9266               377.4066               378.1714
 Red. masses --      6.4879                 2.5212                 6.8127
 Frc consts  --      0.2910                 0.2116                 0.5740
 IR Inten    --   7459.8699                 9.9974                 0.3206

                     10                     11                     12
                     A'                     A"                     A"
 Frequencies --    396.6794               421.1479               460.3424
 Red. masses --      4.2620                 2.8660                 2.6496
 Frc consts  --      0.3951                 0.2995                 0.3308
 IR Inten    --    584.3203                 3.0049                 3.9026

                     13                     14                     15
                     A"                     A"                     A'
 Frequencies --    499.6268               557.7532               567.0601
 Red. masses --      2.5467                 2.4877                 6.8138
 Frc consts  --      0.3746                 0.4560                 1.2909
 IR Inten    --      6.2001                 0.1378               391.5879

                     16                     17                     18
                     A'                     A"                     A'
 Frequencies --    616.7216               670.3005               672.5048
 Red. masses --      6.4457                 3.0747                 5.9519
 Frc consts  --      1.4444                 0.8139                 1.5860
 IR Inten    --      2.2659                 2.3341                 0.7149

                     19                     20                     21
                     A"                     A'                     A"
 Frequencies --    725.1847               752.3326               761.9587
 Red. masses --      1.2440                 5.4010                 1.2728
 Frc consts  --      0.3855                 1.8011                 0.4354
 IR Inten    --     12.5060                84.0408                 6.4780

                     22                     23                     24
                     A"                     A'                     A"
 Frequencies --    780.2494               814.6811               867.3398
 Red. masses --      1.4442                 3.7003                 2.1000
 Frc consts  --      0.5180                 1.4470                 0.9308
 IR Inten    --     94.2794               279.2372                18.2667

                     25                     26                     27
                     A"                     A'                     A"
 Frequencies --    893.7309               897.9788               905.1860
 Red. masses --      1.4454                 5.4957                 1.7191
 Frc consts  --      0.6802                 2.6110                 0.8299
 IR Inten    --      0.9363               179.2293                 1.1341

                     28                     29                     30
                     A'                     A'                     A"
 Frequencies --    914.0856               972.3264               982.8675
 Red. masses --      4.5317                 2.5155                 1.4198
 Frc consts  --      2.2309                 1.4012                 0.8081
 IR Inten    --    264.7003              7873.6321                 0.1966

                     31                     32                     33
                     A"                     A"                     A"
 Frequencies --    992.7622              1002.4232              1017.2036
 Red. masses --      1.4386                 1.4415                 1.3891
 Frc consts  --      0.8354                 0.8535                 0.8468
 IR Inten    --      2.2542                 1.9476                 0.1448

                     34                     35                     36
                     A'                     A'                     A'
 Frequencies --   1067.0281              1096.8254              1109.2680
 Red. masses --      2.4222                 1.8745                 2.0446
 Frc consts  --      1.6248                 1.3287                 1.4823
 IR Inten    --     49.4369              1554.6850                 1.9893

                     37                     38                     39
                     A'                     A"                     A'
 Frequencies --   1150.9022              1163.1312              1189.9629
 Red. masses --      1.6154                 1.1219                 1.2211
 Frc consts  --      1.2607                 0.8943                 1.0187
 IR Inten    --     17.7957                 0.0134                 4.9923

                     40                     41                     42
                     A'                     A'                     A'
 Frequencies --   1201.3322              1207.4866              1231.3704
 Red. masses --      1.2245                 1.4393                 3.9340
 Frc consts  --      1.0412                 1.2364                 3.5145
 IR Inten    --      6.5030                 0.6935                18.2433

                     43                     44                     45
                     A'                     A'                     A'
 Frequencies --   1261.4549              1280.3701              1318.0004
 Red. masses --      2.2360                 2.8931                 1.5829
 Frc consts  --      2.0963                 2.7944                 1.6201
 IR Inten    --    141.2827                60.9696                29.1374

                     46                     47                     48
                     A'                     A'                     A'
 Frequencies --   1346.6466              1354.9967              1378.5943
 Red. masses --      2.4996                 5.2648                 2.3212
 Frc consts  --      2.6707                 5.6952                 2.5992
 IR Inten    --    610.3448                24.9627               576.7843

                     49                     50                     51
                     A'                     A'                     A'
 Frequencies --   1382.6699              1408.0023              1443.6971
 Red. masses --      1.3903                 1.9732                 2.0321
 Frc consts  --      1.5660                 2.3048                 2.4955
 IR Inten    --    311.2578               939.4424              1278.5123

                     52                     53                     54
                     A'                     A'                     A'
 Frequencies --   1472.7174              1502.6156              1520.4374
 Red. masses --      2.0505                 2.7166                 2.4969
 Frc consts  --      2.6203                 3.6138                 3.4008
 IR Inten    --    133.1888               509.3552                11.2315

                     55                     56                     57
                     A'                     A'                     A'
 Frequencies --   1542.3895              1570.9740              1625.9346
 Red. masses --      2.7326                 3.5482                 5.5553
 Frc consts  --      3.8302                 5.1593                 8.6529
 IR Inten    --      0.5301               168.5830                 4.8191

                     58                     59                     60
                     A'                     A'                     A"
 Frequencies --   1657.2013              2965.8177              2978.3365
 Red. masses --      6.4276                 1.0633                 1.0922
 Frc consts  --     10.4004                 5.5107                 5.7084
 IR Inten    --     20.3591                79.6980                 1.3863

                     61                     62                     63
                     A'                     A'                     A'
 Frequencies --   3195.1335              3199.6335              3203.2246
 Red. masses --      1.0906                 1.0908                 1.0907
 Frc consts  --      6.5601                 6.5798                 6.5936
 IR Inten    --     14.2668                10.7606                 0.8328

                     64                     65                     66
                     A'                     A'                     A'
 Frequencies --   3205.5544              3219.7503              3222.2881
 Red. masses --      1.0916                 1.0927                 1.0910
 Frc consts  --      6.6087                 6.6744                 6.6741
 IR Inten    --      0.4367                 2.2571                 0.3739

                     67                     68                     69
                     A'                     A'                     A'
 Frequencies --   3222.9555              3232.3972              3238.5006
 Red. masses --      1.0923                 1.0982                 1.0982
 Frc consts  --      6.6851                 6.7604                 6.7862
 IR Inten    --      0.1128                43.9354                16.8870

 - Thermochemistry -
 -------------------
 Temperature   298.150 Kelvin.  Pressure   1.00000 Atm.
 Atom     1 has atomic number  6 and mass  12.00000

 Molecular mass:   179.08608 amu.
 Principal axes and moments of inertia in atomic units:
                           1         2         3
     Eigenvalues --   847.485804072.210034908.94986
           X            0.99993   0.01221   0.00000
           Y           -0.01221   0.99993   0.00000
           Z           -0.00000   0.00000   1.00000
 This molecule is an asymmetric top.
 Rotational symmetry number  1.
 Warning -- assumption of classical behavior for rotation
           may cause significant error
 Rotational temperatures (Kelvin)      0.10220     0.02127     0.01764
 Rotational constants (GHZ):           2.12952     0.44318     0.36764
 Zero-point vibrational energy     530056.2 (Joules/Mol)
                                  126.68648 (Kcal/Mol)
 Warning -- explicit consideration of  16 degrees of freedom as
           vibrations may cause significant error
 Vibrational temperatures:     76.32   152.29   267.57   320.16   336.92
          (Kelvin)            396.19   397.00   543.00   544.10   570.73
                              605.94   662.33   718.85   802.48   815.87
                              887.32   964.41   967.58  1043.38  1082.44
                             1096.29  1122.60  1172.14  1247.91  1285.88
                             1291.99  1302.36  1315.17  1398.96  1414.13
                             1428.36  1442.26  1463.53  1535.22  1578.09
                             1595.99  1655.89  1673.49  1712.09  1728.45
                             1737.30  1771.67  1814.95  1842.17  1896.31
                             1937.52  1949.54  1983.49  1989.35  2025.80
                             2077.16  2118.91  2161.93  2187.57  2219.15
                             2260.28  2339.36  2384.34  4267.15  4285.16
                             4597.08  4603.56  4608.73  4612.08  4632.50
                             4636.15  4637.11  4650.70  4659.48

 Zero-point correction=                           0.201888 (Hartree/Particle)
 Thermal correction to Energy=                    0.212506
 Thermal correction to Enthalpy=                  0.213450
 Thermal correction to Gibbs Free Energy=         0.165695
 Sum of electronic and zero-point Energies=           -539.497342
 Sum of electronic and thermal Energies=              -539.486724
 Sum of electronic and thermal Enthalpies=            -539.485780
 Sum of electronic and thermal Free Energies=         -539.533535

                     E (Thermal)             CV                S
                      KCal/Mol        Cal/Mol-Kelvin    Cal/Mol-Kelvin
 Total                  133.349             43.997            100.509
 Electronic               0.000              0.000              0.000
 Translational            0.889              2.981             41.455
 Rotational               0.889              2.981             31.205
 Vibrational            131.572             38.036             27.849
 Vibration     1          0.596              1.976              4.701
 Vibration     2          0.605              1.945              3.344
 Vibration     3          0.632              1.859              2.268
 Vibration     4          0.648              1.807              1.938
 Vibration     5          0.654              1.789              1.847
 Vibration     6          0.677              1.719              1.562
 Vibration     7          0.678              1.718              1.559
 Vibration     8          0.748              1.518              1.050
 Vibration     9          0.748              1.517              1.046
 Vibration    10          0.763              1.477              0.975
 Vibration    11          0.784              1.424              0.888
 Vibration    12          0.818              1.338              0.765
 Vibration    13          0.855              1.251              0.659
 Vibration    14          0.913              1.123              0.528
 Vibration    15          0.923              1.103              0.510
 Vibration    16          0.976              0.997              0.422

 Normal termination of Gaussian 16 at Thu Jul 14 20:52:28 2022.
