 Gaussian 16, Revision C.01,
 Gaussian 16:  ES64L-G16RevC.01  3-Jul-2019

 ----------------------------------------------------------------------
 #n M062X/cc-pvtz TD EmpiricalDispersion=GD3 Opt=(CalcAll) IOp(2/15=4,2
 /16=2) Geom=AllCheck
 ----------------------------------------------------------------------

 Structure from the checkpoint file:  "check_ex6.chk"
 -----
 Title
 -----
 Charge =  1 Multiplicity = 1

 SCF Done:  E(RM062X) =  -539.813078343     A.U. after   15 cycles
 Total Energy, E(TD-HF/TD-DFT) =  -539.712057223
 SCF Done:  E(RM062X) =  -539.814049874     A.U. after   12 cycles

 Excitation energies and oscillator strengths:

 Excited State   1:      Singlet-A'     2.7696 eV  447.66 nm  f=0.0235  <S**2>=0.000
      47 -> 48         0.70369
 This state for optimization and/or second-order correction.
 Total Energy, E(TD-HF/TD-DFT) =  -539.712268312
 Copying the excited state density for this state as the 1-particle RhoCI density.

 Excited State   2:      Singlet-A'     3.3088 eV  374.71 nm  f=0.0121  <S**2>=0.000
      45 -> 48         0.63142
      46 -> 48         0.30521

 Excited State   3:      Singlet-A'     3.4866 eV  355.60 nm  f=0.5399  <S**2>=0.000
      45 -> 48        -0.30754
      46 -> 48         0.62702

 Optimization completed.
    -- Stationary point found.

                         Standard orientation:
 ---------------------------------------------------------------------
 Center     Atomic      Atomic             Coordinates (Angstroms)
 Number     Number       Type             X           Y           Z
 ---------------------------------------------------------------------
      1          6           0       -2.366471   -1.551449    0.000000
      2          6           0       -2.317812   -2.942226    0.000000
      3          6           0       -1.086271   -3.590825    0.000000
      4          6           0        0.086391   -2.854621    0.000000
      5          6           0        2.383882    1.502896    0.000000
      6          6           0        2.352960    2.926390    0.000000
      7          6           0        1.148212    3.602089    0.000000
      8          6           0       -0.021368    2.853279    0.000000
      9          6           0       -1.283460    0.692712    0.000000
     10          6           0        1.249583   -0.693628    0.000000
     11          6           0       -1.199681   -0.796199    0.000000
     12          6           0        0.059605   -1.445143    0.000000
     13          6           0        0.000000    1.425490    0.000000
     14          6           0        1.219557    0.740153    0.000000
     15          1           0       -3.325248   -1.047886    0.000000
     16          1           0       -3.234362   -3.514059    0.000000
     17          1           0       -1.042527   -4.670582    0.000000
     18          1           0        1.044041   -3.358549    0.000000
     19          1           0        2.204927   -1.199455    0.000000
     20          1           0        3.345494    1.005073    0.000000
     21          1           0        3.289072    3.467265    0.000000
     22          1           0        1.113177    4.680875    0.000000
     23          1           0       -0.984206    3.349900    0.000000
     24          1           0       -1.880566    1.036955    0.860842
     25          1           0       -1.880566    1.036955   -0.860842
 ---------------------------------------------------------------------

 The electronic state is 1-A'.
 Alpha  occ. eigenvalues --  -10.77517 -10.73428 -10.72841 -10.72495 -10.72016
 Alpha  occ. eigenvalues --  -10.71508 -10.71451 -10.70955 -10.70859 -10.70394
 Alpha  occ. eigenvalues --  -10.69968 -10.69717 -10.69695 -10.69374  -1.16259
 Alpha  occ. eigenvalues --   -1.12272  -1.06776  -1.05563  -1.01151  -1.00072
 Alpha  occ. eigenvalues --   -0.95570  -0.90861  -0.86217  -0.85717  -0.83632
 Alpha  occ. eigenvalues --   -0.78215  -0.75794  -0.74179  -0.69436  -0.69087
 Alpha  occ. eigenvalues --   -0.68229  -0.68016  -0.67929  -0.64680  -0.64018
 Alpha  occ. eigenvalues --   -0.62674  -0.61574  -0.60164  -0.59472  -0.58920
 Alpha  occ. eigenvalues --   -0.56694  -0.55020  -0.54490  -0.52420  -0.46777
 Alpha  occ. eigenvalues --   -0.46035  -0.44214
 Alpha virt. eigenvalues --   -0.25975  -0.14399  -0.13952  -0.12486  -0.06832
 Alpha virt. eigenvalues --   -0.05520  -0.05350  -0.04092  -0.02659  -0.01624
 Alpha virt. eigenvalues --   -0.00188   0.00354   0.00590   0.01904   0.02332

 Mulliken charges:
               1
     1  C   -0.099597
     2  C   -0.024641
     3  C   -0.123686
     4  C   -0.043548
     5  C   -0.080714
     6  C   -0.117443
     7  C   -0.035792
     8  C   -0.099037
     9  C   -0.308627
    10  C   -0.067330
    11  C    0.108263
    12  C    0.048895
    13  C    0.095266
    14  C    0.062733
    15  H    0.138148
    16  H    0.147546
    17  H    0.142920
    18  H    0.132980
    19  H    0.159976
    20  H    0.129689
    21  H    0.142779
    22  H    0.148466
    23  H    0.136231
    24  H    0.203261
    25  H    0.203261
 Sum of Mulliken charges =   1.00000

 Dipole moment (field-independent basis, Debye):
    X=             -0.0936    Y=             -0.5944    Z=             -0.0000  Tot=              0.6017
 Quadrupole moment (field-independent basis, Debye-Ang):
   XX=            -51.0135   YY=            -36.3024   ZZ=            -83.3692
   XY=             10.4361   XZ=             -0.0000   YZ=             -0.0000

  Exact polarizability:     580.078       7.341     154.389       0.000       0.000      68.973
 Approx polarizability:     252.998      45.221     311.799       0.000      -0.000     102.931

                      1                      2                      3
                     A"                     A"                     A"
 Frequencies --     53.6744               105.6176               186.2270
 Red. masses --      3.7155                 3.5794                 2.1646
 Frc consts  --      0.0063                 0.0235                 0.0442
 IR Inten    --      0.1136                 0.0221                 8.3335

                      4                      5                      6
                     A"                     A'                     A"
 Frequencies --    223.8238               232.0740               278.1588
 Red. masses --      4.1974                 4.3949                 2.7911
 Frc consts  --      0.1239                 0.1395                 0.1272
 IR Inten    --      2.5659                13.2857                 2.5913

                      7                      8                      9
                     A'                     A"                     A'
 Frequencies --    366.3344               368.2280               376.9047
 Red. masses --      6.1707                 2.4885                 6.3701
 Frc consts  --      0.4879                 0.1988                 0.5332
 IR Inten    --    769.5181                 7.2415                 8.1625

                     10                     11                     12
                     A'                     A"                     A"
 Frequencies --    421.6578               422.6427               447.3599
 Red. masses --      4.6803                 2.6795                 2.4033
 Frc consts  --      0.4903                 0.2820                 0.2834
 IR Inten    --   1648.8520                 8.0747                 3.6613

                     13                     14                     15
                     A"                     A"                     A'
 Frequencies --    507.7125               550.8212               567.0855
 Red. masses --      2.5517                 2.4092                 6.8711
 Frc consts  --      0.3875                 0.4307                 1.3019
 IR Inten    --      4.0007                 0.3617               272.6971

                     16                     17                     18
                     A'                     A'                     A"
 Frequencies --    611.1214               667.4611               695.5951
 Red. masses --      6.4466                 5.9478                 2.5665
 Frc consts  --      1.4185                 1.5612                 0.7316
 IR Inten    --      2.9546                 0.4459                10.1982

                     19                     20                     21
                     A"                     A'                     A"
 Frequencies --    730.2784               749.1784               763.7818
 Red. masses --      1.2631                 5.4383                 1.2958
 Frc consts  --      0.3969                 1.7984                 0.4454
 IR Inten    --      9.8972                65.9000                 3.9993

                     22                     23                     24
                     A"                     A'                     A"
 Frequencies --    792.0542               816.5879               874.3293
 Red. masses --      1.4959                 3.3512                 1.7932
 Frc consts  --      0.5529                 1.3166                 0.8077
 IR Inten    --     81.8054                43.1855                15.4402

                     25                     26                     27
                     A'                     A"                     A'
 Frequencies --    892.6243               904.9039               907.7158
 Red. masses --      5.5727                 1.4576                 4.5738
 Frc consts  --      2.6161                 0.7032                 2.2204
 IR Inten    --     87.1183                 0.0893               175.1654

                     28                     29                     30
                     A"                     A"                     A"
 Frequencies --    926.1942               991.1363              1001.5294
 Red. masses --      2.1115                 1.4384                 1.4553
 Frc consts  --      1.0672                 0.8325                 0.8601
 IR Inten    --      0.1883                 0.1177                 2.7093

                     31                     32                     33
                     A"                     A'                     A"
 Frequencies --   1016.4466              1019.4930              1032.9746
 Red. masses --      1.5137                 2.3762                 1.4094
 Frc consts  --      0.9214                 1.4552                 0.8860
 IR Inten    --      1.7178              3046.8242                 0.0098

                     34                     35                     36
                     A'                     A'                     A'
 Frequencies --   1065.3489              1098.5362              1106.7763
 Red. masses --      2.3585                 1.9151                 1.9604
 Frc consts  --      1.5772                 1.3617                 1.4148
 IR Inten    --    145.3543              1474.7313               186.0086

                     37                     38                     39
                     A'                     A"                     A'
 Frequencies --   1149.0969              1160.0870              1182.2297
 Red. masses --      1.6010                 1.1355                 1.2210
 Frc consts  --      1.2455                 0.9003                 1.0055
 IR Inten    --     46.8191                 0.0141                14.9776

                     40                     41                     42
                     A'                     A'                     A'
 Frequencies --   1192.6477              1205.5704              1225.7267
 Red. masses --      1.1521                 1.5368                 3.8537
 Frc consts  --      0.9655                 1.3160                 3.4112
 IR Inten    --     17.5161                 2.2405                34.4971

                     43                     44                     45
                     A'                     A'                     A'
 Frequencies --   1253.5609              1287.0621              1313.7140
 Red. masses --      2.1869                 2.7878                 1.6292
 Frc consts  --      2.0248                 2.7208                 1.6566
 IR Inten    --    117.8003                45.0331                81.8382

                     46                     47                     48
                     A'                     A'                     A'
 Frequencies --   1332.1769              1345.8633              1375.6103
 Red. masses --      2.1585                 6.6164                 1.6864
 Frc consts  --      2.2569                 7.0612                 1.8802
 IR Inten    --    681.4364                 0.4547                 2.7187

                     49                     50                     51
                     A'                     A'                     A'
 Frequencies --   1379.5706              1401.8416              1448.5261
 Red. masses --      1.9833                 1.9017                 2.0706
 Frc consts  --      2.2239                 2.2018                 2.5597
 IR Inten    --    303.8519               451.3135               671.0497

                     52                     53                     54
                     A'                     A'                     A'
 Frequencies --   1465.5400              1510.7979              1522.4759
 Red. masses --      2.0383                 2.8718                 2.6518
 Frc consts  --      2.5794                 3.8621                 3.6216
 IR Inten    --    217.5715               451.9830                71.7844

                     55                     56                     57
                     A'                     A'                     A'
 Frequencies --   1547.8867              1576.3646              1623.8356
 Red. masses --      2.8294                 3.7836                 5.8868
 Frc consts  --      3.9941                 5.5394                 9.1456
 IR Inten    --      3.6061               111.4187                 1.1472

                     58                     59                     60
                     A'                     A'                     A"
 Frequencies --   1647.3471              2970.9093              2977.1723
 Red. masses --      6.1373                 1.0624                 1.0916
 Frc consts  --      9.8129                 5.5247                 5.7005
 IR Inten    --     20.1125               146.5029                 2.8195

                     61                     62                     63
                     A'                     A'                     A'
 Frequencies --   3202.7754              3205.8766              3213.0017
 Red. masses --      1.0907                 1.0910                 1.0902
 Frc consts  --      6.5917                 6.6063                 6.6308
 IR Inten    --      4.7867                 2.0324                 0.1563

                     64                     65                     66
                     A'                     A'                     A'
 Frequencies --   3214.1708              3228.4186              3229.1064
 Red. masses --      1.0915                 1.0907                 1.0924
 Frc consts  --      6.6435                 6.6976                 6.7109
 IR Inten    --      0.2343                 0.0585                 0.4827

                     67                     68                     69
                     A'                     A'                     A'
 Frequencies --   3230.8943              3240.9005              3249.5531
 Red. masses --      1.0924                 1.0975                 1.0974
 Frc consts  --      6.7185                 6.7918                 6.8272
 IR Inten    --      1.4931                 8.5652                 0.7338

 - Thermochemistry -
 -------------------
 Temperature   298.150 Kelvin.  Pressure   1.00000 Atm.
 Atom     1 has atomic number  6 and mass  12.00000

 Molecular mass:   179.08608 amu.
 Principal axes and moments of inertia in atomic units:
                           1         2         3
     Eigenvalues --   845.395504061.542864896.27019
           X            0.46544   0.88508   0.00000
           Y            0.88508  -0.46544   0.00000
           Z            0.00000  -0.00000   1.00000
 This molecule is an asymmetric top.
 Rotational symmetry number  1.
 Warning -- assumption of classical behavior for rotation
           may cause significant error
 Rotational temperatures (Kelvin)      0.10245     0.02133     0.01769
 Rotational constants (GHZ):           2.13479     0.44435     0.36860
 Zero-point vibrational energy     531636.6 (Joules/Mol)
                                  127.06420 (Kcal/Mol)
 Warning -- explicit consideration of  16 degrees of freedom as
           vibrations may cause significant error
 Vibrational temperatures:     77.23   151.96   267.94   322.03   333.90
          (Kelvin)            400.21   527.07   529.80   542.28   606.67
                              608.09   643.65   730.49   792.51   815.91
                              879.27   960.33  1000.81  1050.71  1077.90
                             1098.91  1139.59  1174.89  1257.96  1284.29
                             1301.95  1306.00  1332.59  1426.02  1440.98
                             1462.44  1466.82  1486.22  1532.80  1580.55
                             1592.40  1653.29  1669.11  1700.96  1715.95
                             1734.55  1763.55  1803.59  1851.80  1890.14
                             1916.71  1936.40  1979.20  1984.89  2016.94
                             2084.11  2108.59  2173.70  2190.50  2227.06
                             2268.04  2336.34  2370.17  4274.48  4283.49
                             4608.08  4612.54  4622.79  4624.47  4644.97
                             4645.96  4648.54  4662.93  4675.38

 Zero-point correction=                           0.202490 (Hartree/Particle)
 Thermal correction to Energy=                    0.212965
 Thermal correction to Enthalpy=                  0.213909
 Thermal correction to Gibbs Free Energy=         0.166437
 Sum of electronic and zero-point Energies=           -539.509779
 Sum of electronic and thermal Energies=              -539.499303
 Sum of electronic and thermal Enthalpies=            -539.498359
 Sum of electronic and thermal Free Energies=         -539.545831

                     E (Thermal)             CV                S
                      KCal/Mol        Cal/Mol-Kelvin    Cal/Mol-Kelvin
 Total                  133.638             43.646             99.913
 Electronic               0.000              0.000              0.000
 Translational            0.889              2.981             41.455
 Rotational               0.889              2.981             31.198
 Vibrational            131.860             37.685             27.261
 Vibration     1          0.596              1.976              4.677
 Vibration     2          0.605              1.945              3.348
 Vibration     3          0.632              1.859              2.265
 Vibration     4          0.649              1.805              1.928
 Vibration     5          0.653              1.792              1.863
 Vibration     6          0.679              1.714              1.545
 Vibration     7          0.739              1.542              1.095
 Vibration     8          0.741              1.538              1.087
 Vibration     9          0.747              1.519              1.052
 Vibration    10          0.784              1.423              0.886
 Vibration    11          0.785              1.421              0.883
 Vibration    12          0.806              1.367              0.804
 Vibration    13          0.863              1.233              0.639
 Vibration    14          0.906              1.138              0.542
 Vibration    15          0.923              1.102              0.510
 Vibration    16          0.970              1.008              0.431

 Normal termination of Gaussian 16 at Tue Jul 19 17:16:47 2022.
