 Gaussian 16, Revision C.01,
 Gaussian 16:  ES64L-G16RevC.01  3-Jul-2019

 ----------------------------------------------------------------------
 #n wB97XD/6-311++G(2d,2p) TD Opt=(CalcAll) IOp(2/15=4,2/16=2) Geom=All
 Check
 ----------------------------------------------------------------------

 Structure from the checkpoint file:  "check_ex3.chk"
 -----
 Title
 -----
 Charge =  1 Multiplicity = 1

 SCF Done:  E(RwB97XD) =  -539.823760433     A.U. after   14 cycles
 Total Energy, E(TD-HF/TD-DFT) =  -539.719977629
 SCF Done:  E(RwB97XD) =  -539.824335181     A.U. after   11 cycles

 Excitation energies and oscillator strengths:

 Excited State   1:      Singlet-A'     2.8362 eV  437.15 nm  f=0.0277  <S**2>=0.000
      47 -> 48         0.70218
 This state for optimization and/or second-order correction.
 Total Energy, E(TD-HF/TD-DFT) =  -539.720106158
 Copying the excited state density for this state as the 1-particle RhoCI density.

 Excited State   2:      Singlet-A'     3.2826 eV  377.70 nm  f=0.0104  <S**2>=0.000
      45 -> 48         0.62355
      46 -> 48         0.31436

 Excited State   3:      Singlet-A'     3.4936 eV  354.89 nm  f=0.5496  <S**2>=0.000
      45 -> 48        -0.31779
      46 -> 48         0.61877

 Optimization completed.
    -- Stationary point found.

                         Standard orientation:
 ---------------------------------------------------------------------
 Center     Atomic      Atomic             Coordinates (Angstroms)
 Number     Number       Type             X           Y           Z
 ---------------------------------------------------------------------
      1          6           0        2.498862    1.340190    0.000000
      2          6           0        3.698425    0.637448    0.000000
      3          6           0        3.675129   -0.750299    0.000000
      4          6           0        2.458979   -1.430946    0.000000
      5          6           0       -2.464926   -1.384093    0.000000
      6          6           0       -3.690159   -0.680449    0.000000
      7          6           0       -3.704380    0.702577    0.000000
      8          6           0       -2.490513    1.378790    0.000000
      9          6           0        0.007329    1.456432    0.000000
     10          6           0        0.000000   -1.427047    0.000000
     11          6           0        1.270180    0.671092    0.000000
     12          6           0        1.238382   -0.738250    0.000000
     13          6           0       -1.255320    0.684125    0.000000
     14          6           0       -1.239141   -0.718992    0.000000
     15          1           0        2.511550    2.422763    0.000000
     16          1           0        4.638287    1.169462    0.000000
     17          1           0        4.599377   -1.310221    0.000000
     18          1           0        2.451883   -2.512930    0.000000
     19          1           0       -0.009180   -2.507247    0.000000
     20          1           0       -2.483217   -2.466163    0.000000
     21          1           0       -4.615809   -1.238459    0.000000
     22          1           0       -4.636001    1.247767    0.000000
     23          1           0       -2.476977    2.461439    0.000000
     24          1           0        0.001503    2.145057   -0.860749
     25          1           0        0.001503    2.145057    0.860749
 ---------------------------------------------------------------------

 The electronic state is 1-A'.
 Alpha  occ. eigenvalues --  -10.51995 -10.47692 -10.47453 -10.46835 -10.46618
 Alpha  occ. eigenvalues --  -10.45718 -10.45498 -10.45457 -10.45369 -10.45012
 Alpha  occ. eigenvalues --  -10.44252 -10.44164 -10.43954 -10.43835  -1.15982
 Alpha  occ. eigenvalues --   -1.12185  -1.06918  -1.05760  -1.01568  -1.00483
 Alpha  occ. eigenvalues --   -0.96261  -0.91827  -0.87471  -0.86988  -0.84900
 Alpha  occ. eigenvalues --   -0.79714  -0.77577  -0.75976  -0.71290  -0.70914
 Alpha  occ. eigenvalues --   -0.70232  -0.70056  -0.69898  -0.66621  -0.66113
 Alpha  occ. eigenvalues --   -0.65004  -0.63807  -0.62112  -0.61656  -0.61178
 Alpha  occ. eigenvalues --   -0.59057  -0.57472  -0.57142  -0.54630  -0.48938
 Alpha  occ. eigenvalues --   -0.48158  -0.46706
 Alpha virt. eigenvalues --   -0.22513  -0.11031  -0.10534  -0.09195  -0.06566
 Alpha virt. eigenvalues --   -0.05561  -0.04886  -0.03996  -0.03570  -0.03237
 Alpha virt. eigenvalues --   -0.02684  -0.02541  -0.01457  -0.01414  -0.00507

 Mulliken charges:
               1
     1  C    0.013351
     2  C   -0.257396
     3  C   -0.311918
     4  C   -0.028831
     5  C   -0.024078
     6  C   -0.303632
     7  C   -0.281825
     8  C    0.029661
     9  C   -0.167295
    10  C    0.086902
    11  C   -0.462437
    12  C    0.581247
    13  C   -0.460557
    14  C    0.553890
    15  H    0.186900
    16  H    0.205732
    17  H    0.200562
    18  H    0.175522
    19  H    0.137269
    20  H    0.175769
    21  H    0.200409
    22  H    0.203737
    23  H    0.186147
    24  H    0.180436
    25  H    0.180436
 Sum of Mulliken charges =   1.00000

 Dipole moment (field-independent basis, Debye):
    X=              0.2460    Y=             -0.2087    Z=             -0.0000  Tot=              0.3226
 Quadrupole moment (field-independent basis, Debye-Ang):
   XX=            -30.7715   YY=            -55.8980   ZZ=            -82.7318
   XY=             -0.3352   XZ=              0.0000   YZ=              0.0000

  Exact polarizability:     304.283     273.965     663.198      -0.000      -0.000      78.473
 Approx polarizability:     278.788      -0.300     201.009      -0.000      -0.000     102.492

                      1                      2                      3
                     A"                     A"                     A"
 Frequencies --     57.5942               107.0764               194.2137
 Red. masses --      3.8340                 3.6282                 2.0663
 Frc consts  --      0.0075                 0.0245                 0.0459
 IR Inten    --      0.1443                 0.0063                 8.5252

                      4                      5                      6
                     A"                     A'                     A'
 Frequencies --    222.3306               226.0545               242.6955
 Red. masses --      4.4845                 5.4196                 5.0240
 Frc consts  --      0.1306                 0.1632                 0.1743
 IR Inten    --      0.7132              5618.2341              3728.2204

                      7                      8                      9
                     A"                     A'                     A"
 Frequencies --    279.1963               378.5145               381.4126
 Red. masses --      2.7721                 6.8151                 2.4720
 Frc consts  --      0.1273                 0.5753                 0.2119
 IR Inten    --      3.4234                 0.2000                10.6572

                     10                     11                     12
                     A'                     A"                     A"
 Frequencies --    395.2946               420.9976               466.8712
 Red. masses --      4.2946                 2.8465                 2.6524
 Frc consts  --      0.3954                 0.2972                 0.3406
 IR Inten    --    415.2216                 1.9886                 2.8353

                     13                     14                     15
                     A"                     A'                     A"
 Frequencies --    501.9381               566.1691               575.4036
 Red. masses --      2.4459                 6.8148                 2.2304
 Frc consts  --      0.3631                 1.2870                 0.4351
 IR Inten    --      6.4791               389.8783                 0.2022

                     16                     17                     18
                     A'                     A'                     A"
 Frequencies --    618.6183               674.2346               680.9053
 Red. masses --      6.4429                 5.9459                 2.7134
 Frc consts  --      1.4527                 1.5925                 0.7412
 IR Inten    --      1.7467                 0.5470                 2.3166

                     19                     20                     21
                     A"                     A'                     A"
 Frequencies --    726.4198               753.4080               761.5496
 Red. masses --      1.2348                 5.4067                 1.2583
 Frc consts  --      0.3839                 1.8082                 0.4300
 IR Inten    --     14.9657                64.5193                 1.6482

                     22                     23                     24
                     A"                     A'                     A"
 Frequencies --    780.7780               813.8826               872.4198
 Red. masses --      1.4719                 3.7340                 1.8353
 Frc consts  --      0.5287                 1.4573                 0.8230
 IR Inten    --     86.7679               298.9411                15.6717

                     25                     26                     27
                     A'                     A"                     A'
 Frequencies --    901.7920               902.2410               916.8721
 Red. masses --      5.4623                 1.4732                 4.4175
 Frc consts  --      2.6172                 0.7066                 2.1880
 IR Inten    --    211.6808                 0.0724               338.9043

                     28                     29                     30
                     A"                     A'                     A"
 Frequencies --    921.0015               962.1409               986.0313
 Red. masses --      2.0375                 2.5947                 1.4197
 Frc consts  --      1.0183                 1.4152                 0.8132
 IR Inten    --      0.3642              8221.1595                 0.0317

                     31                     32                     33
                     A"                     A"                     A"
 Frequencies --    995.8419              1016.9998              1024.1922
 Red. masses --      1.4825                 1.5131                 1.4453
 Frc consts  --      0.8662                 0.9221                 0.8932
 IR Inten    --      3.1240                 0.8701                 0.2278

                     34                     35                     36
                     A'                     A'                     A'
 Frequencies --   1066.6649              1095.8784              1109.0137
 Red. masses --      2.4614                 1.9138                 2.0606
 Frc consts  --      1.6500                 1.3541                 1.4932
 IR Inten    --     33.9483              1453.9882                 2.7366

                     37                     38                     39
                     A'                     A"                     A'
 Frequencies --   1150.7211              1165.3989              1188.9212
 Red. masses --      1.6253                 1.1305                 1.2575
 Frc consts  --      1.2680                 0.9047                 1.0473
 IR Inten    --     11.1677                 0.0028                 7.4841

                     40                     41                     42
                     A'                     A'                     A'
 Frequencies --   1201.8186              1207.2194              1231.6109
 Red. masses --      1.2745                 1.4484                 4.0009
 Frc consts  --      1.0846                 1.2437                 3.5756
 IR Inten    --      5.8314                 1.0972                11.4529

                     43                     44                     45
                     A'                     A'                     A'
 Frequencies --   1263.0529              1278.9131              1321.8930
 Red. masses --      2.3172                 3.0384                 1.7025
 Frc consts  --      2.1780                 2.9280                 1.7528
 IR Inten    --    124.3982                51.3445                36.6053

                     46                     47                     48
                     A'                     A'                     A'
 Frequencies --   1343.6653              1347.4935              1377.3872
 Red. masses --      3.2169                 4.4099                 2.1405
 Frc consts  --      3.4219                 4.7177                 2.3927
 IR Inten    --    317.5291                42.4264               782.8825

                     49                     50                     51
                     A'                     A'                     A'
 Frequencies --   1383.5940              1410.7459              1445.3811
 Red. masses --      1.3062                 1.9313                 1.9464
 Frc consts  --      1.4733                 2.2646                 2.3957
 IR Inten    --    207.5655               878.1868              1438.2376

                     52                     53                     54
                     A'                     A'                     A'
 Frequencies --   1479.1436              1500.8104              1522.9885
 Red. masses --      2.0028                 2.5171                 2.4096
 Frc consts  --      2.5817                 3.3404                 3.2930
 IR Inten    --    125.5611               418.8298                19.1163

                     55                     56                     57
                     A'                     A'                     A'
 Frequencies --   1544.5862              1569.1217              1622.8025
 Red. masses --      2.6478                 3.2674                 5.2687
 Frc consts  --      3.7219                 4.7399                 8.1750
 IR Inten    --      1.0149               185.3104                 3.7134

                     58                     59                     60
                     A'                     A'                     A"
 Frequencies --   1653.4975              2970.7997              2980.0397
 Red. masses --      6.2261                 1.0632                 1.0918
 Frc consts  --     10.0294                 5.5286                 5.7127
 IR Inten    --     18.8668                60.7038                 1.8700

                     61                     62                     63
                     A'                     A'                     A'
 Frequencies --   3199.9370              3203.4876              3207.6446
 Red. masses --      1.0906                 1.0907                 1.0907
 Frc consts  --      6.5795                 6.5950                 6.6120
 IR Inten    --     13.7809                 9.8776                 0.6532

                     64                     65                     66
                     A'                     A'                     A'
 Frequencies --   3209.3226              3224.0648              3226.1721
 Red. masses --      1.0914                 1.0926                 1.0917
 Frc consts  --      6.6233                 6.6912                 6.6945
 IR Inten    --      0.3848                 1.7066                 0.5948

                     67                     68                     69
                     A'                     A'                     A'
 Frequencies --   3226.4928              3237.1532              3241.7218
 Red. masses --      1.0912                 1.0975                 1.0977
 Frc consts  --      6.6931                 6.7762                 6.7963
 IR Inten    --      0.0928                40.1937                16.2352

 - Thermochemistry -
 -------------------
 Temperature   298.150 Kelvin.  Pressure   1.00000 Atm.
 Atom     1 has atomic number  6 and mass  12.00000

 Molecular mass:   179.08608 amu.
 Principal axes and moments of inertia in atomic units:
                           1         2         3
     Eigenvalues --   844.305244059.453494893.09286
           X            0.99995   0.01014   0.00000
           Y           -0.01014   0.99995   0.00000
           Z           -0.00000   0.00000   1.00000
 This molecule is an asymmetric top.
 Rotational symmetry number  1.
 Warning -- assumption of classical behavior for rotation
           may cause significant error
 Rotational temperatures (Kelvin)      0.10259     0.02134     0.01770
 Rotational constants (GHZ):           2.13755     0.44458     0.36883
 Zero-point vibrational energy     530748.7 (Joules/Mol)
                                  126.85198 (Kcal/Mol)
 Warning -- explicit consideration of  16 degrees of freedom as
           vibrations may cause significant error
 Vibrational temperatures:     82.87   154.06   279.43   319.88   325.24
          (Kelvin)            349.18   401.70   544.60   548.77   568.74
                              605.72   671.72   722.18   814.59   827.88
                              890.05   970.07   979.67  1045.16  1083.99
                             1095.70  1123.37  1171.00  1255.22  1297.48
                             1298.12  1319.17  1325.12  1384.31  1418.68
                             1432.79  1463.24  1473.58  1534.69  1576.72
                             1595.62  1655.63  1676.75  1710.59  1729.15
                             1736.92  1772.01  1817.25  1840.07  1901.91
                             1933.23  1938.74  1981.75  1990.68  2029.75
                             2079.58  2128.16  2159.33  2191.24  2222.31
                             2257.62  2334.85  2379.01  4274.32  4287.61
                             4604.00  4609.10  4615.09  4617.50  4638.71
                             4641.74  4642.20  4657.54  4664.11

 Zero-point correction=                           0.202151 (Hartree/Particle)
 Thermal correction to Energy=                    0.212761
 Thermal correction to Enthalpy=                  0.213705
 Thermal correction to Gibbs Free Energy=         0.166009
 Sum of electronic and zero-point Energies=           -539.517955
 Sum of electronic and thermal Energies=              -539.507346
 Sum of electronic and thermal Enthalpies=            -539.506401
 Sum of electronic and thermal Free Energies=         -539.554097

                     E (Thermal)             CV                S
                      KCal/Mol        Cal/Mol-Kelvin    Cal/Mol-Kelvin
 Total                  133.509             43.887            100.384
 Electronic               0.000              0.000              0.000
 Translational            0.889              2.981             41.455
 Rotational               0.889              2.981             31.195
 Vibrational            131.732             37.925             27.734
 Vibration     1          0.596              1.974              4.538
 Vibration     2          0.606              1.944              3.321
 Vibration     3          0.635              1.848              2.187
 Vibration     4          0.648              1.807              1.940
 Vibration     5          0.650              1.801              1.910
 Vibration     6          0.659              1.775              1.783
 Vibration     7          0.680              1.712              1.539
 Vibration     8          0.749              1.516              1.045
 Vibration     9          0.751              1.510              1.034
 Vibration    10          0.762              1.480              0.980
 Vibration    11          0.784              1.425              0.889
 Vibration    12          0.824              1.324              0.746
 Vibration    13          0.857              1.246              0.653
 Vibration    14          0.922              1.104              0.512
 Vibration    15          0.932              1.084              0.494
 Vibration    16          0.978              0.993              0.419

 Normal termination of Gaussian 16 at Fri Jul 15 01:32:20 2022.
