 Gaussian 16, Revision C.01,
 Gaussian 16:  ES64L-G16RevC.01  3-Jul-2019

 -------------------------------------------------------------------
 #n wB97XD/cc-pvtz TD Opt=(CalcAll) IOp(2/15=4,2/16=2) Geom=AllCheck
 -------------------------------------------------------------------

 Structure from the checkpoint file:  "check_ex4.chk"
 -----
 Title
 -----
 Charge =  1 Multiplicity = 1

 SCF Done:  E(RwB97XD) =  -539.852767435     A.U. after   15 cycles
 Total Energy, E(TD-HF/TD-DFT) =  -539.748421975
 SCF Done:  E(RwB97XD) =  -539.852970683     A.U. after    9 cycles

 Excitation energies and oscillator strengths:

 Excited State   1:      Singlet-A'     2.8443 eV  435.90 nm  f=0.0285  <S**2>=0.000
      47 -> 48         0.70228
 This state for optimization and/or second-order correction.
 Total Energy, E(TD-HF/TD-DFT) =  -539.748443304
 Copying the excited state density for this state as the 1-particle RhoCI density.

 Excited State   2:      Singlet-A'     3.2903 eV  376.82 nm  f=0.0097  <S**2>=0.000
      45 -> 48         0.62304
      46 -> 48         0.31560

 Excited State   3:      Singlet-A'     3.5073 eV  353.50 nm  f=0.5453  <S**2>=0.000
      45 -> 48        -0.31909
      46 -> 48         0.61822

 Optimization completed.
    -- Stationary point found.

                         Standard orientation:
 ---------------------------------------------------------------------
 Center     Atomic      Atomic             Coordinates (Angstroms)
 Number     Number       Type             X           Y           Z
 ---------------------------------------------------------------------
      1          6           0        2.496109    1.340618    0.000000
      2          6           0        3.695495    0.639741    0.000000
      3          6           0        3.672687   -0.746700    0.000000
      4          6           0        2.457295   -1.427799    0.000000
      5          6           0       -2.462881   -1.384564    0.000000
      6          6           0       -3.686599   -0.682196    0.000000
      7          6           0       -3.700981    0.699920    0.000000
      8          6           0       -2.488299    1.376213    0.000000
      9          6           0        0.006763    1.454164    0.000000
     10          6           0       -0.000000   -1.425919    0.000000
     11          6           0        1.268435    0.670802    0.000000
     12          6           0        1.237241   -0.737228    0.000000
     13          6           0       -1.254670    0.682756    0.000000
     14          6           0       -1.237962   -0.719511    0.000000
     15          1           0        2.507197    2.423145    0.000000
     16          1           0        4.634857    1.172401    0.000000
     17          1           0        4.596993   -1.306398    0.000000
     18          1           0        2.451105   -2.509759    0.000000
     19          1           0       -0.008449   -2.506048    0.000000
     20          1           0       -2.480277   -2.466595    0.000000
     21          1           0       -4.612170   -1.240162    0.000000
     22          1           0       -4.632680    1.244812    0.000000
     23          1           0       -2.475053    2.458790    0.000000
     24          1           0        0.001337    2.144018   -0.859839
     25          1           0        0.001337    2.144018    0.859839
 ---------------------------------------------------------------------

 The electronic state is 1-A'.
 Alpha  occ. eigenvalues --  -10.52205 -10.47926 -10.47705 -10.47045 -10.46843
 Alpha  occ. eigenvalues --  -10.45933 -10.45730 -10.45694 -10.45618 -10.45281
 Alpha  occ. eigenvalues --  -10.44477 -10.44397 -10.44193 -10.44084  -1.15856
 Alpha  occ. eigenvalues --   -1.12038  -1.06770  -1.05637  -1.01409  -1.00324
 Alpha  occ. eigenvalues --   -0.96107  -0.91668  -0.87322  -0.86825  -0.84733
 Alpha  occ. eigenvalues --   -0.79541  -0.77417  -0.75816  -0.71118  -0.70745
 Alpha  occ. eigenvalues --   -0.70075  -0.69870  -0.69846  -0.66433  -0.65937
 Alpha  occ. eigenvalues --   -0.64827  -0.63641  -0.62058  -0.61637  -0.60984
 Alpha  occ. eigenvalues --   -0.58859  -0.57274  -0.56942  -0.54590  -0.48884
 Alpha  occ. eigenvalues --   -0.48112  -0.46651
 Alpha virt. eigenvalues --   -0.22407  -0.10682  -0.10324  -0.08892  -0.03288
 Alpha virt. eigenvalues --   -0.00753  -0.00572   0.00562   0.02100   0.03382
 Alpha virt. eigenvalues --    0.04073   0.05343   0.05592   0.06838   0.07171

 Mulliken charges:
               1
     1  C   -0.116307
     2  C   -0.027547
     3  C   -0.108710
     4  C   -0.065660
     5  C   -0.080865
     6  C   -0.105781
     7  C   -0.033435
     8  C   -0.115430
     9  C   -0.089258
    10  C    0.049548
    11  C    0.044068
    12  C    0.018165
    13  C    0.037225
    14  C    0.024238
    15  H    0.135924
    16  H    0.148433
    17  H    0.144244
    18  H    0.134819
    19  H    0.150969
    20  H    0.133576
    21  H    0.143774
    22  H    0.149243
    23  H    0.134672
    24  H    0.147048
    25  H    0.147048
 Sum of Mulliken charges =   1.00000

 Dipole moment (field-independent basis, Debye):
    X=              0.2248    Y=             -0.2209    Z=             -0.0000  Tot=              0.3152
 Quadrupole moment (field-independent basis, Debye-Ang):
   XX=            -30.8507   YY=            -55.8841   ZZ=            -82.3036
   XY=             -0.3059   XZ=             -0.0000   YZ=             -0.0000

  Exact polarizability:     302.765     275.607     664.093       0.000       0.000      68.689
 Approx polarizability:     276.839      -0.287     199.266       0.000      -0.000      94.273

                      1                      2                      3
                     A"                     A"                     A"
 Frequencies --     59.7453               108.4549               198.9724
 Red. masses --      3.8765                 3.6291                 2.0550
 Frc consts  --      0.0082                 0.0252                 0.0479
 IR Inten    --      0.1703                 0.0054                 9.0915

                      4                      5                      6
                     A'                     A"                     A'
 Frequencies --    213.1292               224.0872               238.5645
 Red. masses --      6.0740                 4.4909                 4.5368
 Frc consts  --      0.1626                 0.1329                 0.1521
 IR Inten    --   8897.7345                 0.7188              1077.6268

                      7                      8                      9
                     A"                     A'                     A"
 Frequencies --    283.1975               379.4903               384.7108
 Red. masses --      2.7375                 6.8125                 2.4733
 Frc consts  --      0.1294                 0.5780                 0.2157
 IR Inten    --      3.6498                 0.1078                11.2282

                     10                     11                     12
                     A'                     A"                     A"
 Frequencies --    394.1704               423.6265               472.5711
 Red. masses --      4.3024                 2.8510                 2.6967
 Frc consts  --      0.3938                 0.3014                 0.3548
 IR Inten    --    360.6724                 1.7039                 2.4621

                     13                     14                     15
                     A"                     A'                     A"
 Frequencies --    506.4462               566.5102               579.0009
 Red. masses --      2.4191                 6.8028                 2.2268
 Frc consts  --      0.3656                 1.2863                 0.4398
 IR Inten    --      6.2206               394.2349                 0.1582

                     16                     17                     18
                     A'                     A'                     A"
 Frequencies --    618.0111               674.7919               685.5213
 Red. masses --      6.4433                 5.9409                 2.6985
 Frc consts  --      1.4499                 1.5938                 0.7471
 IR Inten    --      1.6561                 0.6045                 1.9251

                     19                     20                     21
                     A"                     A'                     A"
 Frequencies --    732.3119               755.7568               767.2603
 Red. masses --      1.2326                 5.3926                 1.2565
 Frc consts  --      0.3895                 1.8147                 0.4358
 IR Inten    --     14.9754                62.6346                 1.2588

                     22                     23                     24
                     A"                     A'                     A"
 Frequencies --    786.8993               816.3358               879.0506
 Red. masses --      1.4739                 3.7324                 1.8105
 Frc consts  --      0.5377                 1.4655                 0.8243
 IR Inten    --     85.2226               336.9086                14.7069

                     25                     26                     27
                     A'                     A"                     A'
 Frequencies --    902.4361               908.1911               917.4649
 Red. masses --      5.4504                 1.4739                 4.3120
 Frc consts  --      2.6152                 0.7163                 2.1385
 IR Inten    --    220.3965                 0.0588               478.0691

                     28                     29                     30
                     A"                     A'                     A"
 Frequencies --    928.7299               958.5024               993.1715
 Red. masses --      2.1289                 2.6318                 1.4204
 Frc consts  --      1.0819                 1.4246                 0.8255
 IR Inten    --      0.3452              8405.0302                 0.0418

                     31                     32                     33
                     A"                     A"                     A"
 Frequencies --   1002.8193              1025.0731              1032.9791
 Red. masses --      1.4768                 1.4987                 1.4403
 Frc consts  --      0.8750                 0.9278                 0.9055
 IR Inten    --      2.8410                 0.7873                 0.1770

                     34                     35                     36
                     A'                     A'                     A'
 Frequencies --   1070.5036              1098.5493              1111.7761
 Red. masses --      2.4319                 1.8993                 2.0330
 Frc consts  --      1.6420                 1.3505                 1.4806
 IR Inten    --     27.7940              1342.7099                 1.6855

                     37                     38                     39
                     A'                     A"                     A'
 Frequencies --   1152.6720              1161.4541              1191.3028
 Red. masses --      1.6160                 1.1349                 1.2284
 Frc consts  --      1.2651                 0.9020                 1.0272
 IR Inten    --      9.7044                 0.0022                 5.2266

                     40                     41                     42
                     A'                     A'                     A'
 Frequencies --   1204.3118              1210.1770              1234.7335
 Red. masses --      1.2056                 1.4975                 4.0768
 Frc consts  --      1.0302                 1.2922                 3.6620
 IR Inten    --      5.4759                 0.4422                12.5002

                     43                     44                     45
                     A'                     A'                     A'
 Frequencies --   1266.5709              1282.8087              1323.3025
 Red. masses --      2.1967                 3.1180                 1.6392
 Frc consts  --      2.0762                 3.0231                 1.6912
 IR Inten    --    160.3950                43.6274                28.4774

                     46                     47                     48
                     A'                     A'                     A'
 Frequencies --   1347.4677              1353.1228              1378.0388
 Red. masses --      2.5147                 4.7086                 1.7733
 Frc consts  --      2.6901                 5.0794                 1.9841
 IR Inten    --    397.6563                36.8464               268.4429

                     49                     50                     51
                     A'                     A'                     A'
 Frequencies --   1381.1838              1410.6249              1445.3439
 Red. masses --      1.7508                 1.9912                 1.9766
 Frc consts  --      1.9679                 2.3345                 2.4328
 IR Inten    --    750.1811               997.8884              1334.5783

                     52                     53                     54
                     A'                     A'                     A'
 Frequencies --   1480.4600              1502.3797              1524.5267
 Red. masses --      2.0334                 2.5777                 2.4333
 Frc consts  --      2.6258                 3.4280                 3.3320
 IR Inten    --    117.0585               405.2369                18.9922

                     55                     56                     57
                     A'                     A'                     A'
 Frequencies --   1547.0624              1572.6578              1627.1153
 Red. masses --      2.6961                 3.3889                 5.4272
 Frc consts  --      3.8019                 4.9383                 8.4658
 IR Inten    --      1.0083               185.8974                 3.4184

                     58                     59                     60
                     A'                     A'                     A"
 Frequencies --   1658.2043              2967.1165              2976.6919
 Red. masses --      6.3725                 1.0634                 1.0916
 Frc consts  --     10.3237                 5.5161                 5.6989
 IR Inten    --     19.5419                52.4896                 1.4654

                     61                     62                     63
                     A'                     A'                     A'
 Frequencies --   3200.7301              3204.2222              3208.2686
 Red. masses --      1.0904                 1.0906                 1.0906
 Frc consts  --      6.5819                 6.5973                 6.6141
 IR Inten    --     15.4407                11.2906                 0.9242

                     64                     65                     66
                     A'                     A'                     A'
 Frequencies --   3210.0299              3225.9010              3226.6650
 Red. masses --      1.0913                 1.0924                 1.0905
 Frc consts  --      6.6254                 6.6975                 6.6894
 IR Inten    --      0.5675                 1.7732                 0.3372

                     67                     68                     69
                     A'                     A'                     A'
 Frequencies --   3228.3485              3238.9716              3243.9504
 Red. masses --      1.0922                 1.0976                 1.0977
 Frc consts  --      6.7066                 6.7844                 6.8057
 IR Inten    --      0.2530                44.8918                18.8918

 - Thermochemistry -
 -------------------
 Temperature   298.150 Kelvin.  Pressure   1.00000 Atm.
 Atom     1 has atomic number  6 and mass  12.00000

 Molecular mass:   179.08608 amu.
 Principal axes and moments of inertia in atomic units:
                           1         2         3
     Eigenvalues --   842.878704052.533264884.76863
           X            0.99996   0.00936   0.00000
           Y           -0.00936   0.99996   0.00000
           Z           -0.00000   0.00000   1.00000
 This molecule is an asymmetric top.
 Rotational symmetry number  1.
 Warning -- assumption of classical behavior for rotation
           may cause significant error
 Rotational temperatures (Kelvin)      0.10276     0.02137     0.01773
 Rotational constants (GHZ):           2.14116     0.44534     0.36946
 Zero-point vibrational energy     531651.7 (Joules/Mol)
                                  127.06781 (Kcal/Mol)
 Warning -- explicit consideration of  16 degrees of freedom as
           vibrations may cause significant error
 Vibrational temperatures:     85.96   156.04   286.28   306.65   322.41
          (Kelvin)            343.24   407.46   546.00   553.51   567.12
                              609.50   679.92   728.66   815.08   833.05
                              889.18   970.88   986.31  1053.63  1087.37
                             1103.92  1132.17  1174.53  1264.76  1298.40
                             1306.68  1320.03  1336.24  1379.07  1428.95
                             1442.83  1474.85  1486.23  1540.22  1580.57
                             1599.60  1658.44  1671.07  1714.02  1732.74
                             1741.17  1776.51  1822.31  1845.68  1903.94
                             1938.71  1946.84  1982.69  1987.22  2029.57
                             2079.53  2130.05  2161.59  2193.45  2225.88
                             2262.70  2341.06  2385.79  4269.02  4282.80
                             4605.14  4610.16  4615.98  4618.52  4641.35
                             4642.45  4644.87  4660.16  4667.32

 Zero-point correction=                           0.202495 (Hartree/Particle)
 Thermal correction to Energy=                    0.213072
 Thermal correction to Enthalpy=                  0.214016
 Thermal correction to Gibbs Free Energy=         0.166396
 Sum of electronic and zero-point Energies=           -539.545948
 Sum of electronic and thermal Energies=              -539.535371
 Sum of electronic and thermal Enthalpies=            -539.534427
 Sum of electronic and thermal Free Energies=         -539.582047

                     E (Thermal)             CV                S
                      KCal/Mol        Cal/Mol-Kelvin    Cal/Mol-Kelvin
 Total                  133.705             43.719            100.225
 Electronic               0.000              0.000              0.000
 Translational            0.889              2.981             41.455
 Rotational               0.889              2.981             31.190
 Vibrational            131.927             37.758             27.580
 Vibration     1          0.597              1.973              4.466
 Vibration     2          0.606              1.942              3.296
 Vibration     3          0.637              1.841              2.143
 Vibration     4          0.644              1.821              2.017
 Vibration     5          0.649              1.804              1.926
 Vibration     6          0.657              1.782              1.814
 Vibration     7          0.682              1.705              1.514
 Vibration     8          0.749              1.514              1.041
 Vibration     9          0.754              1.503              1.021
 Vibration    10          0.761              1.483              0.984
 Vibration    11          0.786              1.419              0.880
 Vibration    12          0.829              1.311              0.730
 Vibration    13          0.862              1.236              0.642
 Vibration    14          0.922              1.104              0.511
 Vibration    15          0.936              1.077              0.487
 Vibration    16          0.978              0.994              0.420

 Normal termination of Gaussian 16 at Fri Jul 15 14:11:54 2022.
