 Gaussian 16, Revision C.01,
 Gaussian 16:  ES64L-G16RevC.01  3-Jul-2019

 ---------------------------------------------------------------
 #n M062X/6-311++G(d,p) TD(NStates=1) EmpiricalDispersion=GD3 SP
 ---------------------------------------------------------------

 ----
 SP_1
 ----
 Symbolic Z-matrix:
 Charge =  1 Multiplicity = 1

                         Standard orientation:
 ---------------------------------------------------------------------
 Center     Atomic      Atomic             Coordinates (Angstroms)
 Number     Number       Type             X           Y           Z
 ---------------------------------------------------------------------
      1          6           0       -2.494565   -1.349352    0.005700
      2          6           0       -3.702421   -0.649063   -0.005371
      3          6           0       -3.682899    0.730743    0.000277
      4          6           0       -2.461302    1.384949   -0.006300
      5          6           0        2.465132    1.389931   -0.000275
      6          6           0        3.684936    0.714151    0.017068
      7          6           0        3.700588   -0.659511   -0.004579
      8          6           0        2.490842   -1.340259   -0.004347
      9          6           0       -0.001971   -1.445991    0.015454
     10          6           0        0.001919    1.400124   -0.010135
     11          6           0       -1.263031   -0.688730    0.013181
     12          6           0       -1.236512    0.720331   -0.002833
     13          6           0        1.261128   -0.683961   -0.013905
     14          6           0        1.238493    0.722878   -0.005844
     15          1           0       -2.491514   -2.449489   -0.006612
     16          1           0       -4.638521   -1.196257   -0.024083
     17          1           0       -4.607475    1.273247    0.036725
     18          1           0       -2.464079    2.466387    0.005786
     19          1           0        0.003447    2.485155    0.001986
     20          1           0        2.470989    2.495355    0.012083
     21          1           0        4.611122    1.272428    0.021933
     22          1           0        4.635105   -1.191274   -0.028915
     23          1           0        2.484710   -2.428384   -0.016495
     24          1           0       -0.002654   -2.091913   -0.855022
     25          1           0       -0.003152   -2.112700    0.864057
 ---------------------------------------------------------------------

 SCF Done:  E(RM062X) =  -539.758739963     A.U. after   15 cycles

 Excitation energies and oscillator strengths:

 Excited State   1:      Singlet-A      2.9048 eV  426.82 nm  f=0.0286  <S**2>=0.000
      47 -> 48         0.70410
 This state for optimization and/or second-order correction.
 Total Energy, E(TD-HF/TD-DFT) =  -539.651990090
 Copying the excited state density for this state as the 1-particle RhoCI density.

 The electronic state is 1-A.
 Alpha  occ. eigenvalues --  -10.77398 -10.73041 -10.72974 -10.72258 -10.72228
 Alpha  occ. eigenvalues --  -10.71494 -10.71152 -10.71107 -10.70873 -10.70460
 Alpha  occ. eigenvalues --  -10.70020 -10.69779 -10.69458 -10.69393  -1.16829
 Alpha  occ. eigenvalues --   -1.12875  -1.07318  -1.06121  -1.01370  -1.00628
 Alpha  occ. eigenvalues --   -0.95952  -0.91481  -0.86308  -0.86172  -0.83739
 Alpha  occ. eigenvalues --   -0.78636  -0.76390  -0.74370  -0.69910  -0.69234
 Alpha  occ. eigenvalues --   -0.68969  -0.68244  -0.68180  -0.64625  -0.63825
 Alpha  occ. eigenvalues --   -0.63659  -0.61797  -0.60507  -0.59984  -0.59344
 Alpha  occ. eigenvalues --   -0.56551  -0.55331  -0.54613  -0.52640  -0.46870
 Alpha  occ. eigenvalues --   -0.46141  -0.44771
 Alpha virt. eigenvalues --   -0.26016  -0.14355  -0.14154  -0.12555  -0.11178
 Alpha virt. eigenvalues --   -0.10032  -0.09260  -0.08047  -0.07935  -0.07465
 Alpha virt. eigenvalues --   -0.07195  -0.07084  -0.05639  -0.05560  -0.05283

 Mulliken charges:
               1
     1  C    0.087948
     2  C   -0.419234
     3  C   -0.437959
     4  C    0.044026
     5  C    0.066332
     6  C   -0.445366
     7  C   -0.410695
     8  C    0.094490
     9  C   -0.288798
    10  C    0.098598
    11  C   -0.696318
    12  C    0.680487
    13  C   -0.687412
    14  C    0.707835
    15  H    0.240951
    16  H    0.257241
    17  H    0.244917
    18  H    0.221345
    19  H    0.184754
    20  H    0.231483
    21  H    0.245956
    22  H    0.255067
    23  H    0.236396
    24  H    0.243686
    25  H    0.244270
 Sum of Mulliken charges =   1.00000

 Dipole moment (field-independent basis, Debye):
    X=             -0.0123    Y=              0.2204    Z=             -0.0034  Tot=              0.2208
 Quadrupole moment (field-independent basis, Debye-Ang):
   XX=            -30.3557   YY=            -57.1652   ZZ=            -83.8217
   XY=              0.0881   XZ=             -0.1272   YZ=              0.1813

 Normal termination of Gaussian 16 at Tue Jul 26 14:39:55 2022.
