 Gaussian 16, Revision C.01,
 Gaussian 16:  ES64L-G16RevC.01  3-Jul-2019

 ---------------------------------------------------------------
 #n M062X/6-311++G(d,p) TD(NStates=1) EmpiricalDispersion=GD3 SP
 ---------------------------------------------------------------

 ----
 SP_0
 ----
 Symbolic Z-matrix:
 Charge =  1 Multiplicity = 1

                         Standard orientation:
 ---------------------------------------------------------------------
 Center     Atomic      Atomic             Coordinates (Angstroms)
 Number     Number       Type             X           Y           Z
 ---------------------------------------------------------------------
      1          6           0        0.000000    2.492700    1.313268
      2          6           0       -0.024000    3.701500    0.618868
      3          6           0       -0.048000    3.683900   -0.739932
      4          6           0       -0.024000    2.463200   -1.346732
      5          6           0        0.024000   -2.463200   -1.346732
      6          6           0        0.048000   -3.683900   -0.739932
      7          6           0        0.024000   -3.701500    0.618868
      8          6           0       -0.000000   -2.492700    1.313268
      9          6           0        0.000000    0.000000    1.430268
     10          6           0       -0.000000   -0.000000   -1.341332
     11          6           0        0.033000    1.262100    0.704868
     12          6           0       -0.003000    1.237500   -0.702932
     13          6           0       -0.033000   -1.262100    0.704868
     14          6           0        0.003000   -1.237500   -0.702932
     15          1           0        0.000000    2.488100    2.429468
     16          1           0       -0.021000    4.636800    1.158568
     17          1           0       -0.006000    4.609300   -1.274532
     18          1           0       -0.024000    2.467500   -2.462232
     19          1           0       -0.000000   -0.000000   -2.434432
     20          1           0        0.024000   -2.467500   -2.462232
     21          1           0        0.006000   -4.609300   -1.274532
     22          1           0        0.021000   -4.636800    1.158568
     23          1           0       -0.000000   -2.488100    2.429468
     24          1           0       -0.859600    0.000000    2.014668
     25          1           0        0.859600   -0.000000    2.014668
 ---------------------------------------------------------------------

 SCF Done:  E(RM062X) =  -539.737932106     A.U. after   14 cycles

 Excitation energies and oscillator strengths:

 Excited State   1:      Singlet-A      3.0596 eV  405.24 nm  f=0.0279  <S**2>=0.000
      47 -> 48         0.70380
 This state for optimization and/or second-order correction.
 Total Energy, E(TD-HF/TD-DFT) =  -539.625495598
 Copying the excited state density for this state as the 1-particle RhoCI density.

 The electronic state is 1-A.
 Alpha  occ. eigenvalues --  -10.76874 -10.72554 -10.72553 -10.71876 -10.71875
 Alpha  occ. eigenvalues --  -10.71260 -10.71260 -10.70980 -10.70980 -10.69773
 Alpha  occ. eigenvalues --  -10.69773 -10.69449 -10.69050 -10.69050  -1.17647
 Alpha  occ. eigenvalues --   -1.13733  -1.08272  -1.06753  -1.01887  -1.01147
 Alpha  occ. eigenvalues --   -0.96334  -0.92325  -0.86736  -0.86058  -0.83672
 Alpha  occ. eigenvalues --   -0.79154  -0.77063  -0.74277  -0.70929  -0.70895
 Alpha  occ. eigenvalues --   -0.69288  -0.68342  -0.67337  -0.65601  -0.63474
 Alpha  occ. eigenvalues --   -0.62781  -0.61655  -0.61418  -0.60561  -0.59807
 Alpha  occ. eigenvalues --   -0.56501  -0.55641  -0.53307  -0.53067  -0.47513
 Alpha  occ. eigenvalues --   -0.46190  -0.45303
 Alpha virt. eigenvalues --   -0.25897  -0.14292  -0.13716  -0.12161  -0.11179
 Alpha virt. eigenvalues --   -0.09930  -0.09330  -0.08164  -0.07962  -0.07445
 Alpha virt. eigenvalues --   -0.07181  -0.06928  -0.05636  -0.05520  -0.05197

 Mulliken charges:
               1
     1  C    0.042403
     2  C   -0.438752
     3  C   -0.438294
     4  C    0.113891
     5  C    0.113891
     6  C   -0.438294
     7  C   -0.438752
     8  C    0.042403
     9  C   -0.244321
    10  C    0.111719
    11  C   -0.714077
    12  C    0.711740
    13  C   -0.714077
    14  C    0.711740
    15  H    0.243350
    16  H    0.256547
    17  H    0.233731
    18  H    0.235284
    19  H    0.179843
    20  H    0.235284
    21  H    0.233731
    22  H    0.256547
    23  H    0.243350
    24  H    0.230556
    25  H    0.230556
 Sum of Mulliken charges =   1.00000

 Dipole moment (field-independent basis, Debye):
    X=              0.0000    Y=             -0.0000    Z=             -0.2893  Tot=              0.2893
 Quadrupole moment (field-independent basis, Debye-Ang):
   XX=            -83.2010   YY=            -28.7936   ZZ=            -58.9953
   XY=              0.0268   XZ=             -0.0000   YZ=             -0.0000

 Normal termination of Gaussian 16 at Tue Jul 26 14:29:32 2022.
