 Gaussian 16, Revision C.01,
 Gaussian 16:  ES64L-G16RevC.01  3-Jul-2019

 ---------------------------------------------------------------
 #n M062X/6-311++G(d,p) TD(NStates=1) EmpiricalDispersion=GD3 SP
 ---------------------------------------------------------------

 ----
 SP_4
 ----
 Symbolic Z-matrix:
 Charge =  1 Multiplicity = 1

                         Standard orientation:
 ---------------------------------------------------------------------
 Center     Atomic      Atomic             Coordinates (Angstroms)
 Number     Number       Type             X           Y           Z
 ---------------------------------------------------------------------
      1          6           0       -2.499641   -1.333937    0.017257
      2          6           0       -3.704870   -0.598176   -0.019258
      3          6           0       -3.679912    0.772623    0.012113
      4          6           0       -2.456438    1.339105   -0.023461
      5          6           0        2.470353    1.358957   -0.004337
      6          6           0        3.688089    0.705450    0.060186
      7          6           0        3.698171   -0.639200   -0.018168
      8          6           0        2.485945   -1.296050   -0.011146
      9          6           0       -0.007107   -1.435001    0.061221
     10          6           0        0.006758    1.345016   -0.042130
     11          6           0       -1.265649   -0.716581    0.037191
     12          6           0       -1.233974    0.699267   -0.013361
     13          6           0        1.258242   -0.694553   -0.043129
     14          6           0        1.241111    0.710017   -0.021851
     15          1           0       -2.501319   -2.472959   -0.034872
     16          1           0       -4.643667   -1.165480   -0.098592
     17          1           0       -4.601931    1.270620    0.140379
     18          1           0       -2.454862    2.405516    0.025088
     19          1           0        0.012775    2.436973    0.007652
     20          1           0        2.481059    2.521204    0.048882
     21          1           0        4.616697    1.269829    0.096384
     22          1           0        4.630274   -1.144065   -0.111790
     23          1           0        2.475332   -2.387084   -0.060854
     24          1           0       -0.007623   -1.975817   -0.838108
     25          1           0       -0.013197   -2.060370    0.879077
 ---------------------------------------------------------------------

 SCF Done:  E(RM062X) =  -539.727677493     A.U. after   15 cycles

 Excitation energies and oscillator strengths:

 Excited State   1:      Singlet-A      3.0360 eV  408.37 nm  f=0.0279  <S**2>=0.000
      47 -> 48         0.70348
 This state for optimization and/or second-order correction.
 Total Energy, E(TD-HF/TD-DFT) =  -539.616104976
 Copying the excited state density for this state as the 1-particle RhoCI density.

 The electronic state is 1-A.
 Alpha  occ. eigenvalues --  -10.76859 -10.72752 -10.72490 -10.71996 -10.71953
 Alpha  occ. eigenvalues --  -10.71826 -10.71501 -10.70619 -10.70509 -10.70267
 Alpha  occ. eigenvalues --  -10.69522 -10.69309 -10.69206 -10.69000  -1.17559
 Alpha  occ. eigenvalues --   -1.13688  -1.08240  -1.06742  -1.01830  -1.01103
 Alpha  occ. eigenvalues --   -0.96281  -0.92308  -0.86653  -0.86023  -0.83669
 Alpha  occ. eigenvalues --   -0.79103  -0.77002  -0.74271  -0.71041  -0.70822
 Alpha  occ. eigenvalues --   -0.69202  -0.68311  -0.67342  -0.65583  -0.63504
 Alpha  occ. eigenvalues --   -0.62708  -0.61796  -0.61276  -0.60574  -0.59566
 Alpha  occ. eigenvalues --   -0.56335  -0.55596  -0.53360  -0.52933  -0.47461
 Alpha  occ. eigenvalues --   -0.46112  -0.45217
 Alpha virt. eigenvalues --   -0.25895  -0.14361  -0.13752  -0.12211  -0.11184
 Alpha virt. eigenvalues --   -0.09944  -0.09326  -0.08234  -0.07959  -0.07449
 Alpha virt. eigenvalues --   -0.07170  -0.06980  -0.05645  -0.05547  -0.05217

 Mulliken charges:
               1
     1  C    0.033942
     2  C   -0.419484
     3  C   -0.413745
     4  C    0.100278
     5  C    0.223978
     6  C   -0.455653
     7  C   -0.329959
     8  C    0.031826
     9  C   -0.385171
    10  C    0.064293
    11  C   -0.685105
    12  C    0.524495
    13  C   -0.709404
    14  C    0.850635
    15  H    0.249733
    16  H    0.259838
    17  H    0.235348
    18  H    0.209907
    19  H    0.171675
    20  H    0.248305
    21  H    0.239073
    22  H    0.253394
    23  H    0.229104
    24  H    0.235689
    25  H    0.237007
 Sum of Mulliken charges =   1.00000

 Dipole moment (field-independent basis, Debye):
    X=             -0.0571    Y=              0.2834    Z=             -0.0100  Tot=              0.2892
 Quadrupole moment (field-independent basis, Debye-Ang):
   XX=            -28.8581   YY=            -58.9482   ZZ=            -83.1910
   XY=              0.3358   XZ=             -0.3528   YZ=              0.7237

 Normal termination of Gaussian 16 at Tue Jul 26 15:47:33 2022.
