 Gaussian 16, Revision C.01,
 Gaussian 16:  ES64L-G16RevC.01  3-Jul-2019

 ---------------------------------------------------------------
 #n M062X/6-311++G(d,p) TD(NStates=1) EmpiricalDispersion=GD3 SP
 ---------------------------------------------------------------

 ----
 SP_3
 ----
 Symbolic Z-matrix:
 Charge =  1 Multiplicity = 1

                         Standard orientation:
 ---------------------------------------------------------------------
 Center     Atomic      Atomic             Coordinates (Angstroms)
 Number     Number       Type             X           Y           Z
 ---------------------------------------------------------------------
      1          6           0       -2.498598   -1.374681    0.001276
      2          6           0       -3.704339   -0.656072   -0.014968
      3          6           0       -3.680777    0.738062    0.026166
      4          6           0       -2.457234    1.401365   -0.009955
      5          6           0        2.469275    1.416286   -0.009166
      6          6           0        3.686879    0.688584    0.024763
      7          6           0        3.698593   -0.687712   -0.015728
      8          6           0        2.486962   -1.348020    0.002490
      9          6           0       -0.006218   -1.456015    0.046509
     10          6           0        0.006114    1.431166   -0.029771
     11          6           0       -1.265035   -0.684026   -0.000839
     12          6           0       -1.234401    0.728009   -0.013095
     13          6           0        1.259244   -0.670830   -0.000236
     14          6           0        1.240653    0.735419   -0.012703
     15          1           0       -2.498706   -2.475287   -0.035304
     16          1           0       -4.642051   -1.216786   -0.080211
     17          1           0       -4.603898    1.271759    0.087340
     18          1           0       -2.457060    2.447305    0.024660
     19          1           0        0.010735    2.511665    0.006087
     20          1           0        2.478356    2.534142    0.028035
     21          1           0        4.614772    1.268336    0.087688
     22          1           0        4.631695   -1.202456   -0.079222
     23          1           0        2.477808   -2.412610   -0.032796
     24          1           0       -0.003134   -2.116768   -0.846416
     25          1           0       -0.015221   -2.178507    0.871675
 ---------------------------------------------------------------------

 SCF Done:  E(RM062X) =  -539.753715893     A.U. after   15 cycles

 Excitation energies and oscillator strengths:

 Excited State   1:      Singlet-A      2.8120 eV  440.91 nm  f=0.0286  <S**2>=0.000
      47 -> 48         0.70422
 This state for optimization and/or second-order correction.
 Total Energy, E(TD-HF/TD-DFT) =  -539.650377401
 Copying the excited state density for this state as the 1-particle RhoCI density.

 The electronic state is 1-A.
 Alpha  occ. eigenvalues --  -10.77661 -10.73374 -10.73180 -10.72499 -10.72424
 Alpha  occ. eigenvalues --  -10.71898 -10.71359 -10.71018 -10.70858 -10.70680
 Alpha  occ. eigenvalues --  -10.70340 -10.69762 -10.69619 -10.69552  -1.16395
 Alpha  occ. eigenvalues --   -1.12444  -1.06936  -1.05715  -1.01283  -1.00158
 Alpha  occ. eigenvalues --   -0.95747  -0.91051  -0.86419  -0.85835  -0.83825
 Alpha  occ. eigenvalues --   -0.78372  -0.75992  -0.74410  -0.69650  -0.69290
 Alpha  occ. eigenvalues --   -0.68419  -0.68144  -0.68057  -0.64728  -0.64252
 Alpha  occ. eigenvalues --   -0.63067  -0.61868  -0.60049  -0.59678  -0.58922
 Alpha  occ. eigenvalues --   -0.56878  -0.55245  -0.54731  -0.52375  -0.46610
 Alpha  occ. eigenvalues --   -0.46000  -0.44463
 Alpha virt. eigenvalues --   -0.26089  -0.14685  -0.14137  -0.12799  -0.11184
 Alpha virt. eigenvalues --   -0.10093  -0.09228  -0.08070  -0.07932  -0.07479
 Alpha virt. eigenvalues --   -0.07208  -0.07153  -0.05648  -0.05595  -0.05346

 Mulliken charges:
               1
     1  C    0.083155
     2  C   -0.384952
     3  C   -0.434791
     4  C   -0.013362
     5  C    0.053444
     6  C   -0.448578
     7  C   -0.394058
     8  C    0.088374
     9  C   -0.379136
    10  C    0.092216
    11  C   -0.629540
    12  C    0.727882
    13  C   -0.652635
    14  C    0.682050
    15  H    0.241968
    16  H    0.259496
    17  H    0.248098
    18  H    0.204364
    19  H    0.186395
    20  H    0.235275
    21  H    0.249923
    22  H    0.252952
    23  H    0.228505
    24  H    0.249290
    25  H    0.253666
 Sum of Mulliken charges =   1.00000

 Dipole moment (field-independent basis, Debye):
    X=             -0.0346    Y=              0.1856    Z=             -0.0098  Tot=              0.1890
 Quadrupole moment (field-independent basis, Debye-Ang):
   XX=            -31.1469   YY=            -56.2383   ZZ=            -84.1372
   XY=              0.2693   XZ=             -0.0008   YZ=              0.5415

 Normal termination of Gaussian 16 at Tue Jul 26 15:15:47 2022.
