 Gaussian 16, Revision C.01,
 Gaussian 16:  ES64L-G16RevC.01  3-Jul-2019

 ---------------------------------------------------------------
 #n M062X/6-311++G(d,p) TD(NStates=1) EmpiricalDispersion=GD3 SP
 ---------------------------------------------------------------

 ----
 SP_2
 ----
 Symbolic Z-matrix:
 Charge =  1 Multiplicity = 1

                         Standard orientation:
 ---------------------------------------------------------------------
 Center     Atomic      Atomic             Coordinates (Angstroms)
 Number     Number       Type             X           Y           Z
 ---------------------------------------------------------------------
      1          6           0       -2.496454   -1.354210    0.006168
      2          6           0       -3.703327   -0.643800   -0.010216
      3          6           0       -3.681856    0.738880    0.009186
      4          6           0       -2.459404    1.382880   -0.009714
      5          6           0        2.467066    1.392838   -0.003426
      6          6           0        3.685930    0.705698    0.025501
      7          6           0        3.699661   -0.664696   -0.009681
      8          6           0        2.489007   -1.336031   -0.003469
      9          6           0       -0.003944   -1.446865    0.030898
     10          6           0        0.003838    1.400794   -0.020261
     11          6           0       -1.263996   -0.691248    0.012714
     12          6           0       -1.235530    0.719372   -0.007234
     13          6           0        1.260189   -0.681713   -0.014164
     14          6           0        1.239493    0.724464   -0.010113
     15          1           0       -2.494969   -2.460144   -0.018589
     16          1           0       -4.640253   -1.198043   -0.050740
     17          1           0       -4.605664    1.272870    0.065985
     18          1           0       -2.460692    2.452124    0.014156
     19          1           0        0.006894    2.485621    0.003976
     20          1           0        2.474514    2.510044    0.021586
     21          1           0        4.612957    1.271228    0.051312
     22          1           0        4.633421   -1.188083   -0.055240
     23          1           0        2.481359   -2.417946   -0.027627
     24          1           0       -0.003544   -2.082147   -0.850327
     25          1           0       -0.008070   -2.123704    0.868383
 ---------------------------------------------------------------------

 SCF Done:  E(RM062X) =  -539.756650327     A.U. after   15 cycles

 Excitation energies and oscillator strengths:

 Excited State   1:      Singlet-A      2.9010 eV  427.39 nm  f=0.0285  <S**2>=0.000
      47 -> 48         0.70408
 This state for optimization and/or second-order correction.
 Total Energy, E(TD-HF/TD-DFT) =  -539.650041386
 Copying the excited state density for this state as the 1-particle RhoCI density.

 The electronic state is 1-A.
 Alpha  occ. eigenvalues --  -10.77396 -10.73086 -10.72954 -10.72282 -10.72222
 Alpha  occ. eigenvalues --  -10.71668 -10.71229 -10.70984 -10.70762 -10.70473
 Alpha  occ. eigenvalues --  -10.70143 -10.69661 -10.69500 -10.69370  -1.16813
 Alpha  occ. eigenvalues --   -1.12868  -1.07314  -1.06117  -1.01360  -1.00619
 Alpha  occ. eigenvalues --   -0.95941  -0.91479  -0.86314  -0.86144  -0.83741
 Alpha  occ. eigenvalues --   -0.78627  -0.76379  -0.74368  -0.69943  -0.69221
 Alpha  occ. eigenvalues --   -0.68968  -0.68246  -0.68146  -0.64622  -0.63856
 Alpha  occ. eigenvalues --   -0.63618  -0.61801  -0.60515  -0.59985  -0.59290
 Alpha  occ. eigenvalues --   -0.56544  -0.55304  -0.54614  -0.52618  -0.46863
 Alpha  occ. eigenvalues --   -0.46124  -0.44757
 Alpha virt. eigenvalues --   -0.26016  -0.14360  -0.14167  -0.12564  -0.11180
 Alpha virt. eigenvalues --   -0.10034  -0.09259  -0.08067  -0.07931  -0.07466
 Alpha virt. eigenvalues --   -0.07192  -0.07092  -0.05640  -0.05565  -0.05288

 Mulliken charges:
               1
     1  C    0.081956
     2  C   -0.413668
     3  C   -0.434905
     4  C    0.038563
     5  C    0.083385
     6  C   -0.449188
     7  C   -0.398920
     8  C    0.093291
     9  C   -0.309340
    10  C    0.097399
    11  C   -0.692134
    12  C    0.671317
    13  C   -0.688176
    14  C    0.717304
    15  H    0.242546
    16  H    0.258260
    17  H    0.244636
    18  H    0.215484
    19  H    0.183318
    20  H    0.235673
    21  H    0.246633
    22  H    0.254039
    23  H    0.233163
    24  H    0.243938
    25  H    0.245425
 Sum of Mulliken charges =   1.00000

 Dipole moment (field-independent basis, Debye):
    X=             -0.0248    Y=              0.2196    Z=             -0.0065  Tot=              0.2211
 Quadrupole moment (field-independent basis, Debye-Ang):
   XX=            -30.3650   YY=            -57.1573   ZZ=            -83.8202
   XY=              0.1764   XZ=             -0.1270   YZ=              0.3622

 Normal termination of Gaussian 16 at Tue Jul 26 15:00:09 2022.
