 Gaussian 16, Revision C.01,
 Gaussian 16:  ES64L-G16RevC.01  3-Jul-2019

 ---------------------------------------------------------------
 #n M062X/6-311++G(d,p) TD(NStates=1) EmpiricalDispersion=GD3 SP
 ---------------------------------------------------------------

 ----
 SP_0
 ----
 Symbolic Z-matrix:
 Charge =  1 Multiplicity = 1

                         Standard orientation:
 ---------------------------------------------------------------------
 Center     Atomic      Atomic             Coordinates (Angstroms)
 Number     Number       Type             X           Y           Z
 ---------------------------------------------------------------------
      1          6           0        0.000000    2.492700    1.344700
      2          6           0       -0.008000    3.701500    0.654300
      3          6           0       -0.016000    3.683900   -0.722500
      4          6           0       -0.008000    2.463200   -1.387300
      5          6           0        0.008000   -2.463200   -1.387300
      6          6           0        0.016000   -3.683900   -0.722500
      7          6           0        0.008000   -3.701500    0.654300
      8          6           0       -0.000000   -2.492700    1.344700
      9          6           0        0.000000    0.000000    1.445700
     10          6           0        0.000000   -0.000000   -1.399900
     11          6           0        0.011000    1.262100    0.686300
     12          6           0       -0.001000    1.237500   -0.721500
     13          6           0       -0.011000   -1.262100    0.686300
     14          6           0        0.001000   -1.237500   -0.721500
     15          1           0        0.000000    2.488100    2.438900
     16          1           0       -0.007000    4.636800    1.194000
     17          1           0       -0.002000    4.609300   -1.273100
     18          1           0       -0.008000    2.467500   -2.480800
     19          1           0        0.000000   -0.000000   -2.485000
     20          1           0        0.008000   -2.467500   -2.480800
     21          1           0        0.002000   -4.609300   -1.273100
     22          1           0        0.007000   -4.636800    1.194000
     23          1           0       -0.000000   -2.488100    2.438900
     24          1           0       -0.859600   -0.000000    2.102100
     25          1           0        0.859600   -0.000000    2.102100
 ---------------------------------------------------------------------

 SCF Done:  E(RM062X) =  -539.759440785     A.U. after   15 cycles

 Excitation energies and oscillator strengths:

 Excited State   1:      Singlet-A      2.9061 eV  426.63 nm  f=0.0286  <S**2>=0.000
      47 -> 48         0.70411
 This state for optimization and/or second-order correction.
 Total Energy, E(TD-HF/TD-DFT) =  -539.652642925
 Copying the excited state density for this state as the 1-particle RhoCI density.

 The electronic state is 1-A.
 Alpha  occ. eigenvalues --  -10.77399 -10.73004 -10.73003 -10.72241 -10.72239
 Alpha  occ. eigenvalues --  -10.71322 -10.71322 -10.70989 -10.70989 -10.70456
 Alpha  occ. eigenvalues --  -10.69899 -10.69899 -10.69423 -10.69423  -1.16835
 Alpha  occ. eigenvalues --   -1.12878  -1.07319  -1.06122  -1.01373  -1.00631
 Alpha  occ. eigenvalues --   -0.95955  -0.91482  -0.86306  -0.86182  -0.83738
 Alpha  occ. eigenvalues --   -0.78639  -0.76394  -0.74371  -0.69899  -0.69238
 Alpha  occ. eigenvalues --   -0.68971  -0.68238  -0.68196  -0.64626  -0.63810
 Alpha  occ. eigenvalues --   -0.63677  -0.61795  -0.60504  -0.59984  -0.59362
 Alpha  occ. eigenvalues --   -0.56554  -0.55340  -0.54612  -0.52647  -0.46872
 Alpha  occ. eigenvalues --   -0.46147  -0.44776
 Alpha virt. eigenvalues --   -0.26016  -0.14353  -0.14149  -0.12552  -0.11178
 Alpha virt. eigenvalues --   -0.10031  -0.09260  -0.08041  -0.07936  -0.07464
 Alpha virt. eigenvalues --   -0.07196  -0.07082  -0.05638  -0.05559  -0.05282

 Mulliken charges:
               1
     1  C    0.092505
     2  C   -0.418259
     3  C   -0.441530
     4  C    0.052440
     5  C    0.052440
     6  C   -0.441530
     7  C   -0.418259
     8  C    0.092505
     9  C   -0.281358
    10  C    0.098889
    11  C   -0.692711
    12  C    0.695255
    13  C   -0.692711
    14  C    0.695255
    15  H    0.238999
    16  H    0.256151
    17  H    0.245373
    18  H    0.226678
    19  H    0.185261
    20  H    0.226678
    21  H    0.245373
    22  H    0.256151
    23  H    0.238999
    24  H    0.243704
    25  H    0.243704
 Sum of Mulliken charges =   1.00000

 Dipole moment (field-independent basis, Debye):
    X=             -0.0000    Y=              0.0000    Z=             -0.2207  Tot=              0.2207
 Quadrupole moment (field-independent basis, Debye-Ang):
   XX=            -83.8224   YY=            -30.3524   ZZ=            -57.1678
   XY=              0.0155   XZ=              0.0000   YZ=             -0.0000

 Normal termination of Gaussian 16 at Tue Jul 26 14:25:20 2022.
