 Gaussian 16, Revision C.01,
 Gaussian 16:  ES64L-G16RevC.01  3-Jul-2019

 ---------------------------------------------------------------
 #n M062X/6-311++G(d,p) TD(NStates=1) EmpiricalDispersion=GD3 SP
 ---------------------------------------------------------------

 ----
 SP_2
 ----
 Symbolic Z-matrix:
 Charge =  1 Multiplicity = 1

                         Standard orientation:
 ---------------------------------------------------------------------
 Center     Atomic      Atomic             Coordinates (Angstroms)
 Number     Number       Type             X           Y           Z
 ---------------------------------------------------------------------
      1          6           0       -2.496286   -1.338697    0.011360
      2          6           0       -3.703273   -0.626184   -0.010348
      3          6           0       -3.681928    0.747691    0.001099
      4          6           0       -2.459616    1.362606   -0.012870
      5          6           0        2.466921    1.372560   -0.000663
      6          6           0        3.686009    0.714305    0.034323
      7          6           0        3.699767   -0.646887   -0.008967
      8          6           0        2.489143   -1.320123   -0.008473
      9          6           0       -0.003746   -1.439158    0.030775
     10          6           0        0.003605    1.371524   -0.020674
     11          6           0       -1.263894   -0.700900    0.025917
     12          6           0       -1.235628    0.710020   -0.005773
     13          6           0        1.260141   -0.690624   -0.028116
     14          6           0        1.239391    0.715258   -0.011715
     15          1           0       -2.494796   -2.455622   -0.013913
     16          1           0       -4.640232   -1.180516   -0.048077
     17          1           0       -4.605625    1.273257    0.073706
     18          1           0       -2.460908    2.442840    0.011507
     19          1           0        0.006637    2.460344    0.003894
     20          1           0        2.474363    2.500757    0.024849
     21          1           0        4.612963    1.272246    0.044173
     22          1           0        4.633469   -1.170166   -0.057551
     23          1           0        2.481500   -2.413030   -0.033123
     24          1           0       -0.004999   -2.038256   -0.849711
     25          1           0       -0.006005   -2.080193    0.868996
 ---------------------------------------------------------------------

 SCF Done:  E(RM062X) =  -539.749367181     A.U. after   15 cycles

 Excitation energies and oscillator strengths:

 Excited State   1:      Singlet-A      2.9796 eV  416.11 nm  f=0.0283  <S**2>=0.000
      47 -> 48         0.70391
 This state for optimization and/or second-order correction.
 Total Energy, E(TD-HF/TD-DFT) =  -539.639868391
 Copying the excited state density for this state as the 1-particle RhoCI density.

 The electronic state is 1-A.
 Alpha  occ. eigenvalues --  -10.77131 -10.72857 -10.72724 -10.72099 -10.72031
 Alpha  occ. eigenvalues --  -10.71625 -10.71228 -10.70953 -10.70746 -10.70077
 Alpha  occ. eigenvalues --  -10.69962 -10.69595 -10.69301 -10.69183  -1.17214
 Alpha  occ. eigenvalues --   -1.13289  -1.07757  -1.06457  -1.01517  -1.00975
 Alpha  occ. eigenvalues --   -0.96125  -0.91903  -0.86444  -0.86173  -0.83688
 Alpha  occ. eigenvalues --   -0.78880  -0.76726  -0.74320  -0.70411  -0.69918
 Alpha  occ. eigenvalues --   -0.69214  -0.68244  -0.67806  -0.64930  -0.63808
 Alpha  occ. eigenvalues --   -0.63274  -0.61734  -0.60969  -0.60285  -0.59538
 Alpha  occ. eigenvalues --   -0.56266  -0.55711  -0.53983  -0.52828  -0.47167
 Alpha  occ. eigenvalues --   -0.46160  -0.45023
 Alpha virt. eigenvalues --   -0.25951  -0.14233  -0.14043  -0.12358  -0.11180
 Alpha virt. eigenvalues --   -0.09982  -0.09292  -0.08121  -0.07934  -0.07455
 Alpha virt. eigenvalues --   -0.07185  -0.07020  -0.05638  -0.05545  -0.05242

 Mulliken charges:
               1
     1  C    0.064754
     2  C   -0.430899
     3  C   -0.431873
     4  C    0.080386
     5  C    0.129213
     6  C   -0.449155
     7  C   -0.393504
     8  C    0.073117
     9  C   -0.287228
    10  C    0.098198
    11  C   -0.727232
    12  C    0.620089
    13  C   -0.700741
    14  C    0.764998
    15  H    0.244455
    16  H    0.258299
    17  H    0.239599
    18  H    0.220062
    19  H    0.179478
    20  H    0.240030
    21  H    0.241775
    22  H    0.254239
    23  H    0.235075
    24  H    0.238327
    25  H    0.238540
 Sum of Mulliken charges =   1.00000

 Dipole moment (field-independent basis, Debye):
    X=             -0.0263    Y=              0.2531    Z=             -0.0061  Tot=              0.2545
 Quadrupole moment (field-independent basis, Debye-Ang):
   XX=            -29.5909   YY=            -58.0676   ZZ=            -83.5057
   XY=              0.1726   XZ=             -0.2471   YZ=              0.3628

 Normal termination of Gaussian 16 at Tue Jul 26 15:04:05 2022.
