 Gaussian 16, Revision C.01,
 Gaussian 16:  ES64L-G16RevC.01  3-Jul-2019

 ---------------------------------------------------------------
 #n M062X/6-311++G(d,p) TD(NStates=1) EmpiricalDispersion=GD3 SP
 ---------------------------------------------------------------

 ----
 SP_1
 ----
 Symbolic Z-matrix:
 Charge =  1 Multiplicity = 1

                         Standard orientation:
 ---------------------------------------------------------------------
 Center     Atomic      Atomic             Coordinates (Angstroms)
 Number     Number       Type             X           Y           Z
 ---------------------------------------------------------------------
      1          6           0       -2.494262   -1.302505    0.021152
      2          6           0       -3.702433   -0.596057   -0.006193
      3          6           0       -3.683269    0.757050   -0.024540
      4          6           0       -2.461735    1.324111   -0.015482
      5          6           0        2.465036    1.329076    0.008294
      6          6           0        3.685316    0.740130    0.043001
      7          6           0        3.700836   -0.606227   -0.002859
      8          6           0        2.490989   -1.292819   -0.019498
      9          6           0       -0.001677   -1.422851    0.015273
     10          6           0        0.001574    1.312281   -0.010772
     11          6           0       -1.262614   -0.717144    0.053357
     12          6           0       -1.236652    0.692373    0.001652
     13          6           0        1.260790   -0.711247   -0.055216
     14          6           0        1.238336    0.695139   -0.010554
     15          1           0       -2.491204   -2.435634    0.008047
     16          1           0       -4.638541   -1.143393   -0.016340
     17          1           0       -4.607357    1.274912    0.059460
     18          1           0       -2.464518    2.438542   -0.002611
     19          1           0        0.003066    2.409308    0.001847
     20          1           0        2.470885    2.467494    0.021392
     21          1           0        4.611074    1.275038    0.000072
     22          1           0        4.635223   -1.137834   -0.036109
     23          1           0        2.484863   -2.413938   -0.032380
     24          1           0       -0.007481   -1.960493   -0.854055
     25          1           0        0.002578   -1.981849    0.864987
 ---------------------------------------------------------------------

 SCF Done:  E(RM062X) =  -539.716339529     A.U. after   14 cycles

 Excitation energies and oscillator strengths:

 Excited State   1:      Singlet-A      3.1272 eV  396.48 nm  f=0.0273  <S**2>=0.000
      47 -> 48         0.70358
 This state for optimization and/or second-order correction.
 Total Energy, E(TD-HF/TD-DFT) =  -539.601418832
 Copying the excited state density for this state as the 1-particle RhoCI density.

 The electronic state is 1-A.
 Alpha  occ. eigenvalues --  -10.76617 -10.72382 -10.72317 -10.71732 -10.71693
 Alpha  occ. eigenvalues --  -10.71411 -10.71116 -10.71088 -10.70862 -10.69843
 Alpha  occ. eigenvalues --  -10.69604 -10.68980 -10.68915 -10.68869  -1.18064
 Alpha  occ. eigenvalues --   -1.14176  -1.08826  -1.07011  -1.02356  -1.01195
 Alpha  occ. eigenvalues --   -0.96540  -0.92733  -0.86999  -0.85920  -0.83699
 Alpha  occ. eigenvalues --   -0.79418  -0.77354  -0.74241  -0.71978  -0.71432
 Alpha  occ. eigenvalues --   -0.69374  -0.68455  -0.66820  -0.66333  -0.63036
 Alpha  occ. eigenvalues --   -0.62250  -0.61834  -0.61635  -0.60796  -0.59923
 Alpha  occ. eigenvalues --   -0.56945  -0.55289  -0.53259  -0.52615  -0.47859
 Alpha  occ. eigenvalues --   -0.46179  -0.45548
 Alpha virt. eigenvalues --   -0.25851  -0.14383  -0.13404  -0.12007  -0.11177
 Alpha virt. eigenvalues --   -0.09884  -0.09370  -0.08232  -0.08010  -0.07435
 Alpha virt. eigenvalues --   -0.07174  -0.06851  -0.05639  -0.05505  -0.05166

 Mulliken charges:
               1
     1  C    0.007808
     2  C   -0.450644
     3  C   -0.428251
     4  C    0.118409
     5  C    0.170136
     6  C   -0.433834
     7  C   -0.405384
     8  C   -0.015609
     9  C   -0.340136
    10  C    0.083851
    11  C   -0.692023
    12  C    0.587741
    13  C   -0.611580
    14  C    0.843195
    15  H    0.246998
    16  H    0.258428
    17  H    0.226795
    18  H    0.232992
    19  H    0.178626
    20  H    0.244131
    21  H    0.227260
    22  H    0.255720
    23  H    0.244304
    24  H    0.226389
    25  H    0.224679
 Sum of Mulliken charges =   1.00000

 Dipole moment (field-independent basis, Debye):
    X=             -0.0140    Y=              0.3261    Z=             -0.0024  Tot=              0.3264
 Quadrupole moment (field-independent basis, Debye-Ang):
   XX=            -28.0134   YY=            -59.9183   ZZ=            -82.8957
   XY=              0.0810   XZ=             -0.4729   YZ=              0.1824

 Normal termination of Gaussian 16 at Tue Jul 26 14:52:04 2022.
