 Gaussian 16, Revision C.01,
 Gaussian 16:  ES64L-G16RevC.01  3-Jul-2019

 ---------------------------------------------------------------
 #n M062X/6-311++G(d,p) TD(NStates=1) EmpiricalDispersion=GD3 SP
 ---------------------------------------------------------------

 ----
 SP_1
 ----
 Symbolic Z-matrix:
 Charge =  1 Multiplicity = 1

                         Standard orientation:
 ---------------------------------------------------------------------
 Center     Atomic      Atomic             Coordinates (Angstroms)
 Number     Number       Type             X           Y           Z
 ---------------------------------------------------------------------
      1          6           0       -2.494473   -1.333736    0.010848
      2          6           0       -3.702407   -0.631396   -0.005649
      3          6           0       -3.682972    0.739509   -0.007998
      4          6           0       -2.461425    1.364668   -0.009357
      5          6           0        2.465077    1.369647    0.002586
      6          6           0        3.685012    0.722814    0.025711
      7          6           0        3.700654   -0.641748   -0.004008
      8          6           0        2.490902   -1.324446   -0.009400
      9          6           0       -0.001872   -1.438278    0.015393
     10          6           0        0.001802    1.370843   -0.010341
     11          6           0       -1.262942   -0.698199    0.026576
     12          6           0       -1.236560    0.711011   -0.001336
     13          6           0        1.261066   -0.693059   -0.027674
     14          6           0        1.238441    0.713632   -0.007412
     15          1           0       -2.491420   -2.444871   -0.001727
     16          1           0       -4.638517   -1.178638   -0.021506
     17          1           0       -4.607447    1.273801    0.044302
     18          1           0       -2.464204    2.457103    0.002988
     19          1           0        0.003318    2.459873    0.001944
     20          1           0        2.470931    2.486070    0.015188
     21          1           0        4.611116    1.273298    0.014647
     22          1           0        4.635136   -1.173459   -0.031316
     23          1           0        2.484773   -2.423569   -0.021790
     24          1           0       -0.004261   -2.048106   -0.854712
     25          1           0       -0.001240   -2.069083    0.864362
 ---------------------------------------------------------------------

 SCF Done:  E(RM062X) =  -539.751375571     A.U. after   15 cycles

 Excitation energies and oscillator strengths:

 Excited State   1:      Singlet-A      2.9837 eV  415.53 nm  f=0.0283  <S**2>=0.000
      47 -> 48         0.70394
 This state for optimization and/or second-order correction.
 Total Energy, E(TD-HF/TD-DFT) =  -539.641724862
 Copying the excited state density for this state as the 1-particle RhoCI density.

 The electronic state is 1-A.
 Alpha  occ. eigenvalues --  -10.77133 -10.72811 -10.72744 -10.72073 -10.72039
 Alpha  occ. eigenvalues --  -10.71454 -10.71118 -10.71102 -10.70861 -10.69954
 Alpha  occ. eigenvalues --  -10.69948 -10.69713 -10.69262 -10.69203  -1.17230
 Alpha  occ. eigenvalues --   -1.13297  -1.07762  -1.06460  -1.01526  -1.00984
 Alpha  occ. eigenvalues --   -0.96135  -0.91906  -0.86457  -0.86183  -0.83687
 Alpha  occ. eigenvalues --   -0.78889  -0.76737  -0.74322  -0.70385  -0.69930
 Alpha  occ. eigenvalues --   -0.69228  -0.68249  -0.67816  -0.64931  -0.63797
 Alpha  occ. eigenvalues --   -0.63298  -0.61722  -0.60974  -0.60282  -0.59589
 Alpha  occ. eigenvalues --   -0.56280  -0.55735  -0.53977  -0.52850  -0.47176
 Alpha  occ. eigenvalues --   -0.46176  -0.45038
 Alpha virt. eigenvalues --   -0.25951  -0.14220  -0.14036  -0.12349  -0.11179
 Alpha virt. eigenvalues --   -0.09980  -0.09293  -0.08106  -0.07935  -0.07454
 Alpha virt. eigenvalues --   -0.07187  -0.07011  -0.05636  -0.05540  -0.05237

 Mulliken charges:
               1
     1  C    0.071090
     2  C   -0.435769
     3  C   -0.436898
     4  C    0.082425
     5  C    0.105791
     6  C   -0.445118
     7  C   -0.414511
     8  C    0.075844
     9  C   -0.254248
    10  C    0.105430
    11  C   -0.734216
    12  C    0.654430
    13  C   -0.706013
    14  C    0.739590
    15  H    0.242816
    16  H    0.257326
    17  H    0.239723
    18  H    0.225918
    19  H    0.181067
    20  H    0.235982
    21  H    0.240844
    22  H    0.255172
    23  H    0.238406
    24  H    0.237525
    25  H    0.237394
 Sum of Mulliken charges =   1.00000

 Dipole moment (field-independent basis, Debye):
    X=             -0.0130    Y=              0.2540    Z=             -0.0032  Tot=              0.2543
 Quadrupole moment (field-independent basis, Debye-Ang):
   XX=            -29.5813   YY=            -58.0756   ZZ=            -83.5070
   XY=              0.0863   XZ=             -0.2475   YZ=              0.1816

 Normal termination of Gaussian 16 at Tue Jul 26 14:44:06 2022.
