 Gaussian 16, Revision C.01,
 Gaussian 16:  ES64L-G16RevC.01  3-Jul-2019

 ---------------------------------------------------------------
 #n M062X/6-311++G(d,p) TD(NStates=1) EmpiricalDispersion=GD3 SP
 ---------------------------------------------------------------

 ----
 SP_0
 ----
 Symbolic Z-matrix:
 Charge =  1 Multiplicity = 1

                         Standard orientation:
 ---------------------------------------------------------------------
 Center     Atomic      Atomic             Coordinates (Angstroms)
 Number     Number       Type             X           Y           Z
 ---------------------------------------------------------------------
      1          6           0        0.000000    2.492700    1.360416
      2          6           0        0.000000    3.701500    0.672016
      3          6           0        0.000000    3.683900   -0.713784
      4          6           0        0.000000    2.463200   -1.407584
      5          6           0       -0.000000   -2.463200   -1.407584
      6          6           0       -0.000000   -3.683900   -0.713784
      7          6           0       -0.000000   -3.701500    0.672016
      8          6           0       -0.000000   -2.492700    1.360416
      9          6           0       -0.000000   -0.000000    1.453416
     10          6           0        0.000000    0.000000   -1.429184
     11          6           0        0.000000    1.262100    0.677016
     12          6           0        0.000000    1.237500   -0.730784
     13          6           0       -0.000000   -1.262100    0.677016
     14          6           0       -0.000000   -1.237500   -0.730784
     15          1           0        0.000000    2.488100    2.443616
     16          1           0        0.000000    4.636800    1.211716
     17          1           0        0.000000    4.609300   -1.272384
     18          1           0        0.000000    2.467500   -2.490084
     19          1           0        0.000000    0.000000   -2.510284
     20          1           0       -0.000000   -2.467500   -2.490084
     21          1           0       -0.000000   -4.609300   -1.272384
     22          1           0       -0.000000   -4.636800    1.211716
     23          1           0       -0.000000   -2.488100    2.443616
     24          1           0       -0.859600    0.000000    2.145816
     25          1           0        0.859600   -0.000000    2.145816
 ---------------------------------------------------------------------

 SCF Done:  E(RM062X) =  -539.760230349     A.U. after   15 cycles

 Excitation energies and oscillator strengths:

 Excited State   1:      Singlet-A1     2.8227 eV  439.24 nm  f=0.0287  <S**2>=0.000
      47 -> 48         0.70426
 This state for optimization and/or second-order correction.
 Total Energy, E(TD-HF/TD-DFT) =  -539.656497548
 Copying the excited state density for this state as the 1-particle RhoCI density.

 The electronic state is 1-A1.
 Alpha  occ. eigenvalues --  -10.77667 -10.73241 -10.73240 -10.72436 -10.72435
 Alpha  occ. eigenvalues --  -10.71369 -10.71369 -10.71004 -10.71004 -10.70980
 Alpha  occ. eigenvalues --  -10.69972 -10.69972 -10.69630 -10.69630  -1.16442
 Alpha  occ. eigenvalues --   -1.12466  -1.06945  -1.05728  -1.01314  -1.00184
 Alpha  occ. eigenvalues --   -0.95782  -0.91056  -0.86419  -0.85901  -0.83817
 Alpha  occ. eigenvalues --   -0.78399  -0.76027  -0.74418  -0.69560  -0.69245
 Alpha  occ. eigenvalues --   -0.68504  -0.68194  -0.68101  -0.64739  -0.64285
 Alpha  occ. eigenvalues --   -0.63063  -0.61867  -0.60003  -0.59680  -0.59091
 Alpha  occ. eigenvalues --   -0.56898  -0.55216  -0.54837  -0.52438  -0.46625
 Alpha  occ. eigenvalues --   -0.46057  -0.44501
 Alpha virt. eigenvalues --   -0.26088  -0.14669  -0.14097  -0.12774  -0.11179
 Alpha virt. eigenvalues --   -0.10086  -0.09230  -0.07983  -0.07970  -0.07476
 Alpha virt. eigenvalues --   -0.07203  -0.07145  -0.05643  -0.05581  -0.05332

 Mulliken charges:
               1
     1  C    0.093193
     2  C   -0.406743
     3  C   -0.440099
     4  C    0.014532
     5  C    0.014532
     6  C   -0.440099
     7  C   -0.406743
     8  C    0.093193
     9  C   -0.334380
    10  C    0.093112
    11  C   -0.636519
    12  C    0.686520
    13  C   -0.636519
    14  C    0.686520
    15  H    0.237285
    16  H    0.256316
    17  H    0.248902
    18  H    0.221996
    19  H    0.190410
    20  H    0.221996
    21  H    0.248902
    22  H    0.256316
    23  H    0.237285
    24  H    0.250046
    25  H    0.250046
 Sum of Mulliken charges =   1.00000

 Dipole moment (field-independent basis, Debye):
    X=             -0.0000    Y=             -0.0000    Z=             -0.1879  Tot=              0.1879
 Quadrupole moment (field-independent basis, Debye-Ang):
   XX=            -84.1421   YY=            -31.1174   ZZ=            -56.2620
   XY=              0.0000   XZ=              0.0000   YZ=              0.0000

 Normal termination of Gaussian 16 at Tue Jul 26 14:22:44 2022.
