 Gaussian 16, Revision C.01,
 Gaussian 16:  ES64L-G16RevC.01  3-Jul-2019

 ---------------------------------------------------------------
 #n M062X/6-311++G(d,p) TD(NStates=1) EmpiricalDispersion=GD3 SP
 ---------------------------------------------------------------

 ----
 SP_3
 ----
 Symbolic Z-matrix:
 Charge =  1 Multiplicity = 1

                         Standard orientation:
 ---------------------------------------------------------------------
 Center     Atomic      Atomic             Coordinates (Angstroms)
 Number     Number       Type             X           Y           Z
 ---------------------------------------------------------------------
      1          6           0       -2.497866   -1.328457    0.016978
      2          6           0       -3.704057   -0.603380   -0.014916
      3          6           0       -3.680989    0.764626    0.002479
      4          6           0       -2.458138    1.340574   -0.019716
      5          6           0        2.468570    1.355477   -0.001170
      6          6           0        3.687121    0.714230    0.051760
      7          6           0        3.699034   -0.634153   -0.013157
      8          6           0        2.487598   -1.300020   -0.012368
      9          6           0       -0.005327   -1.432931    0.045954
     10          6           0        0.005065    1.343405   -0.031627
     11          6           0       -1.264691   -0.713528    0.038191
     12          6           0       -1.234847    0.699859   -0.008824
     13          6           0        1.259138   -0.696995   -0.042633
     14          6           0        1.240197    0.707929   -0.017613
     15          1           0       -2.497949   -2.462004   -0.021913
     16          1           0       -4.641937   -1.164474   -0.071964
     17          1           0       -4.603748    1.272399    0.110931
     18          1           0       -2.457982    2.419456    0.017155
     19          1           0        0.009578    2.435861    0.005718
     20          1           0        2.477624    2.506277    0.038305
     21          1           0        4.614824    1.271818    0.066711
     22          1           0        4.631891   -1.148391   -0.085884
     23          1           0        2.478464   -2.397555   -0.049873
     24          1           0       -0.007042   -1.984872   -0.843644
     25          1           0       -0.008566   -2.048319    0.874426
 ---------------------------------------------------------------------

 SCF Done:  E(RM062X) =  -539.732153683     A.U. after   15 cycles

 Excitation energies and oscillator strengths:

 Excited State   1:      Singlet-A      3.0461 eV  407.03 nm  f=0.0279  <S**2>=0.000
      47 -> 48         0.70361
 This state for optimization and/or second-order correction.
 Total Energy, E(TD-HF/TD-DFT) =  -539.620211592
 Copying the excited state density for this state as the 1-particle RhoCI density.

 The electronic state is 1-A.
 Alpha  occ. eigenvalues --  -10.76865 -10.72690 -10.72493 -10.71958 -10.71857
 Alpha  occ. eigenvalues --  -10.71751 -10.71366 -10.70775 -10.70622 -10.70141
 Alpha  occ. eigenvalues --  -10.69490 -10.69422 -10.69158 -10.69002  -1.17597
 Alpha  occ. eigenvalues --   -1.13708  -1.08254  -1.06747  -1.01855  -1.01122
 Alpha  occ. eigenvalues --   -0.96304  -0.92316  -0.86688  -0.86039  -0.83670
 Alpha  occ. eigenvalues --   -0.79125  -0.77029  -0.74273  -0.71001  -0.70846
 Alpha  occ. eigenvalues --   -0.69236  -0.68326  -0.67341  -0.65591  -0.63492
 Alpha  occ. eigenvalues --   -0.62738  -0.61747  -0.61329  -0.60568  -0.59667
 Alpha  occ. eigenvalues --   -0.56406  -0.55616  -0.53339  -0.52990  -0.47483
 Alpha  occ. eigenvalues --   -0.46146  -0.45254
 Alpha virt. eigenvalues --   -0.25896  -0.14331  -0.13736  -0.12189  -0.11182
 Alpha virt. eigenvalues --   -0.09938  -0.09327  -0.08204  -0.07960  -0.07446
 Alpha virt. eigenvalues --   -0.07175  -0.06958  -0.05641  -0.05535  -0.05208

 Mulliken charges:
               1
     1  C    0.036491
     2  C   -0.432511
     3  C   -0.418889
     4  C    0.107573
     5  C    0.204397
     6  C   -0.450553
     7  C   -0.355316
     8  C    0.030330
     9  C   -0.350886
    10  C    0.073641
    11  C   -0.708918
    12  C    0.534789
    13  C   -0.693615
    14  C    0.849939
    15  H    0.248256
    16  H    0.259304
    17  H    0.234316
    18  H    0.217280
    19  H    0.174571
    20  H    0.246855
    21  H    0.237117
    22  H    0.253879
    23  H    0.233754
    24  H    0.234301
    25  H    0.233893
 Sum of Mulliken charges =   1.00000

 Dipole moment (field-independent basis, Debye):
    X=             -0.0420    Y=              0.2861    Z=             -0.0079  Tot=              0.2893
 Quadrupole moment (field-independent basis, Debye-Ang):
   XX=            -28.8296   YY=            -58.9693   ZZ=            -83.1945
   XY=              0.2517   XZ=             -0.3587   YZ=              0.5440

 Normal termination of Gaussian 16 at Tue Jul 26 15:28:09 2022.
