 Gaussian 16, Revision C.01,
 Gaussian 16:  ES64L-G16RevC.01  3-Jul-2019

 ---------------------------------------------------------------
 #n M062X/6-311++G(d,p) TD(NStates=1) EmpiricalDispersion=GD3 SP
 ---------------------------------------------------------------

 -----
 SP_18
 -----
 Symbolic Z-matrix:
 Charge =  1 Multiplicity = 1

                         Standard orientation:
 ---------------------------------------------------------------------
 Center     Atomic      Atomic             Coordinates (Angstroms)
 Number     Number       Type             X           Y           Z
 ---------------------------------------------------------------------
      1          6           0       -2.353409   -1.544455    0.000000
      2          6           0       -2.294389   -2.938420    0.000000
      3          6           0       -1.055381   -3.590705    0.000000
      4          6           0        0.090798   -2.874370    0.000000
      5          6           0        2.364728    1.495828    0.000000
      6          6           0        2.332627    2.952081    0.000000
      7          6           0        1.135564    3.622137    0.000000
      8          6           0       -0.026472    2.864477    0.000000
      9          6           0       -1.278855    0.690656    0.000000
     10          6           0        1.239349   -0.713704    0.000000
     11          6           0       -1.213172   -0.805654    0.000000
     12          6           0        0.062503   -1.451129    0.000000
     13          6           0        0.000000    1.408147    0.000000
     14          6           0        1.214520    0.739352    0.000000
     15          1           0       -3.318491   -1.052311    0.000000
     16          1           0       -3.209817   -3.512786    0.000000
     17          1           0       -1.022383   -4.670782    0.000000
     18          1           0        1.055354   -3.366021    0.000000
     19          1           0        2.198798   -1.211939    0.000000
     20          1           0        3.333385    1.011948    0.000000
     21          1           0        3.274077    3.485300    0.000000
     22          1           0        1.096387    4.700322    0.000000
     23          1           0       -0.995833    3.348513    0.000000
     24          1           0       -1.860973    1.071156    0.859585
     25          1           0       -1.860973    1.071156   -0.859585
 ---------------------------------------------------------------------

 SCF Done:  E(RM062X) =  -539.748930294     A.U. after   16 cycles

 Excitation energies and oscillator strengths:

 Excited State   1:      Singlet-A'     2.5863 eV  479.39 nm  f=0.0175  <S**2>=0.000
      47 -> 48         0.70333
 This state for optimization and/or second-order correction.
 Total Energy, E(TD-HF/TD-DFT) =  -539.653885944
 Copying the excited state density for this state as the 1-particle RhoCI density.

 The electronic state is 1-A'.
 Alpha  occ. eigenvalues --  -10.77514 -10.73878 -10.72926 -10.72557 -10.72396
 Alpha  occ. eigenvalues --  -10.71895 -10.71799 -10.70998 -10.70717 -10.70261
 Alpha  occ. eigenvalues --  -10.69941 -10.69760 -10.69664 -10.69282  -1.16610
 Alpha  occ. eigenvalues --   -1.12488  -1.06921  -1.05944  -1.01282  -1.00549
 Alpha  occ. eigenvalues --   -0.95467  -0.91020  -0.86456  -0.85867  -0.83789
 Alpha  occ. eigenvalues --   -0.78273  -0.76228  -0.74327  -0.69935  -0.69298
 Alpha  occ. eigenvalues --   -0.68239  -0.68076  -0.67989  -0.65461  -0.64256
 Alpha  occ. eigenvalues --   -0.62584  -0.61512  -0.60607  -0.59293  -0.59121
 Alpha  occ. eigenvalues --   -0.56840  -0.55476  -0.54203  -0.52437  -0.47663
 Alpha  occ. eigenvalues --   -0.46145  -0.43455
 Alpha virt. eigenvalues --   -0.26124  -0.14706  -0.14021  -0.12739  -0.11198
 Alpha virt. eigenvalues --   -0.10097  -0.09277  -0.07947  -0.07885  -0.07491
 Alpha virt. eigenvalues --   -0.07216  -0.07123  -0.05650  -0.05568  -0.05360

 Mulliken charges:
               1
     1  C    0.066426
     2  C   -0.401645
     3  C   -0.431080
     4  C    0.042701
     5  C   -0.018438
     6  C   -0.448754
     7  C   -0.411215
     8  C    0.120941
     9  C   -0.342596
    10  C    0.084479
    11  C   -0.646058
    12  C    0.711811
    13  C   -0.607121
    14  C    0.660481
    15  H    0.239882
    16  H    0.262586
    17  H    0.252553
    18  H    0.226066
    19  H    0.189134
    20  H    0.218307
    21  H    0.245002
    22  H    0.250271
    23  H    0.234994
    24  H    0.250637
    25  H    0.250637
 Sum of Mulliken charges =   1.00000

 Dipole moment (field-independent basis, Debye):
    X=             -0.5003    Y=             -1.2805    Z=             -0.0000  Tot=              1.3748
 Quadrupole moment (field-independent basis, Debye-Ang):
   XX=            -51.1119   YY=            -36.0988   ZZ=            -84.1199
   XY=             10.2383   XZ=              0.0000   YZ=             -0.0000

 Normal termination of Gaussian 16 at Wed Jul 27 12:50:08 2022.
