 Gaussian 16, Revision C.01,
 Gaussian 16:  ES64L-G16RevC.01  3-Jul-2019

 ---------------------------------------------------------------
 #n M062X/6-311++G(d,p) TD(NStates=1) EmpiricalDispersion=GD3 SP
 ---------------------------------------------------------------

 -----
 SP_20
 -----
 Symbolic Z-matrix:
 Charge =  1 Multiplicity = 1

                         Standard orientation:
 ---------------------------------------------------------------------
 Center     Atomic      Atomic             Coordinates (Angstroms)
 Number     Number       Type             X           Y           Z
 ---------------------------------------------------------------------
      1          6           0       -2.350758   -1.543480    0.000000
      2          6           0       -2.289066   -2.937791    0.000000
      3          6           0       -1.048981   -3.591463    0.000000
      4          6           0        0.092529   -2.878634    0.000000
      5          6           0        2.360272    1.494799    0.000000
      6          6           0        2.328342    2.956904    0.000000
      7          6           0        1.133019    3.626888    0.000000
      8          6           0       -0.027206    2.867237    0.000000
      9          6           0       -1.278665    0.691039    0.000000
     10          6           0        1.237167   -0.717934    0.000000
     11          6           0       -1.215365   -0.807202    0.000000
     12          6           0        0.062928   -1.452817    0.000000
     13          6           0        0.000000    1.405478    0.000000
     14          6           0        1.212910    0.738734    0.000000
     15          1           0       -3.317243   -1.054024    0.000000
     16          1           0       -3.204230   -3.512767    0.000000
     17          1           0       -1.018376   -4.671625    0.000000
     18          1           0        1.058488   -3.367599    0.000000
     19          1           0        2.197371   -1.214724    0.000000
     20          1           0        3.330326    1.013610    0.000000
     21          1           0        3.271114    3.488126    0.000000
     22          1           0        1.093191    4.704950    0.000000
     23          1           0       -0.997963    3.348582    0.000000
     24          1           0       -1.857719    1.077462    0.859585
     25          1           0       -1.857719    1.077462   -0.859585
 ---------------------------------------------------------------------

 SCF Done:  E(RM062X) =  -539.746264179     A.U. after   16 cycles

 Excitation energies and oscillator strengths:

 Excited State   1:      Singlet-A'     2.5473 eV  486.73 nm  f=0.0166  <S**2>=0.000
      47 -> 48         0.70331
 This state for optimization and/or second-order correction.
 Total Energy, E(TD-HF/TD-DFT) =  -539.652652185
 Copying the excited state density for this state as the 1-particle RhoCI density.

 The electronic state is 1-A'.
 Alpha  occ. eigenvalues --  -10.77478 -10.73944 -10.72970 -10.72556 -10.72480
 Alpha  occ. eigenvalues --  -10.71943 -10.71721 -10.71002 -10.70640 -10.70291
 Alpha  occ. eigenvalues --  -10.69972 -10.69678 -10.69585 -10.69242  -1.16648
 Alpha  occ. eigenvalues --   -1.12493  -1.06917  -1.05994  -1.01277  -1.00620
 Alpha  occ. eigenvalues --   -0.95407  -0.91009  -0.86464  -0.85859  -0.83783
 Alpha  occ. eigenvalues --   -0.78245  -0.76269  -0.74311  -0.69999  -0.69313
 Alpha  occ. eigenvalues --   -0.68188  -0.68070  -0.67953  -0.65578  -0.64250
 Alpha  occ. eigenvalues --   -0.62521  -0.61438  -0.60689  -0.59324  -0.59049
 Alpha  occ. eigenvalues --   -0.56827  -0.55499  -0.54098  -0.52437  -0.47844
 Alpha  occ. eigenvalues --   -0.46155  -0.43284
 Alpha virt. eigenvalues --   -0.26132  -0.14713  -0.14005  -0.12730  -0.11203
 Alpha virt. eigenvalues --   -0.10100  -0.09288  -0.07940  -0.07867  -0.07494
 Alpha virt. eigenvalues --   -0.07219  -0.07118  -0.05651  -0.05565  -0.05366

 Mulliken charges:
               1
     1  C    0.063731
     2  C   -0.401069
     3  C   -0.430018
     4  C    0.045055
     5  C   -0.022149
     6  C   -0.449752
     7  C   -0.411571
     8  C    0.124046
     9  C   -0.344640
    10  C    0.082330
    11  C   -0.646591
    12  C    0.713854
    13  C   -0.601599
    14  C    0.658157
    15  H    0.240164
    16  H    0.263284
    17  H    0.252935
    18  H    0.226503
    19  H    0.188845
    20  H    0.217951
    21  H    0.244567
    22  H    0.249633
    23  H    0.234782
    24  H    0.250776
    25  H    0.250776
 Sum of Mulliken charges =   1.00000

 Dipole moment (field-independent basis, Debye):
    X=             -0.5753    Y=             -1.4089    Z=              0.0000  Tot=              1.5219
 Quadrupole moment (field-independent basis, Debye-Ang):
   XX=            -51.1613   YY=            -36.0103   ZZ=            -84.1148
   XY=             10.2227   XZ=             -0.0000   YZ=              0.0000

 Normal termination of Gaussian 16 at Wed Jul 27 12:52:58 2022.
